 
             +---------------------------------------------------+
             |                                                   |
             |                   WANNIER90                       |
             |                                                   |
             +---------------------------------------------------+
             |                                                   |
             |        Welcome to the Maximally-Localized         |
             |        Generalized Wannier Functions code         |
             |            http://www.wannier.org                 |
             |                                                   |
             |                                                   |
             |  Wannier90 Developer Group:                       |
             |    Giovanni Pizzi    (EPFL)                       |
             |    Valerio Vitale    (Cambridge)                  |
             |    David Vanderbilt  (Rutgers University)         |
             |    Nicola Marzari    (EPFL)                       |
             |    Ivo Souza         (Universidad del Pais Vasco) |
             |    Arash A. Mostofi  (Imperial College London)    |
             |    Jonathan R. Yates (University of Oxford)       |
             |                                                   |
             |  For the full list of Wannier90 3.x authors,      |
             |  please check the code documentation and the      |
             |  README on the GitHub page of the code            |
             |                                                   |
             |                                                   |
             |  Please cite                                      |
             |                                                   |
             |  [ref] "Wannier90 as a community code:            |
             |        new features and applications",            |
             |        G. Pizzi et al., J. Phys. Cond. Matt. 32,  |
             |        165902 (2020).                             |
             |        http://doi.org/10.1088/1361-648X/ab51ff    |
             |                                                   |
             |  in any publications arising from the use of      |
             |  this code. For the method please cite            |
             |                                                   |
             |  [ref] "Maximally Localized Generalised Wannier   |
             |         Functions for Composite Energy Bands"     |
             |         N. Marzari and D. Vanderbilt              |
             |         Phys. Rev. B 56 12847 (1997)              |
             |                                                   |
             |  [ref] "Maximally Localized Wannier Functions     |
             |         for Entangled Energy Bands"               |
             |         I. Souza, N. Marzari and D. Vanderbilt    |
             |         Phys. Rev. B 65 035109 (2001)             |
             |                                                   |
             |                                                   |
             | Copyright (c) 1996-2020                           |
             |        The Wannier90 Developer Group and          |
             |        individual contributors                    |
             |                                                   |
             |      Release: 3.1.0        5th March    2020      |
             |                                                   |
             | This program is free software; you can            |
             | redistribute it and/or modify it under the terms  |
             | of the GNU General Public License as published by |
             | the Free Software Foundation; either version 2 of |
             | the License, or (at your option) any later version|
             |                                                   |
             | This program is distributed in the hope that it   |
             | will be useful, but WITHOUT ANY WARRANTY; without |
             | even the implied warranty of MERCHANTABILITY or   |
             | FITNESS FOR A PARTICULAR PURPOSE. See the GNU     |
             | General Public License for more details.          |
             |                                                   |
             | You should have received a copy of the GNU General|
             | Public License along with this program; if not,   |
             | write to the Free Software Foundation, Inc.,      |
             | 675 Mass Ave, Cambridge, MA 02139, USA.           |
             |                                                   |
             +---------------------------------------------------+
             |    Execution started on 20Jun2023 at 15:30:59     |
             +---------------------------------------------------+
 
 ******************************************************************************
 * -> Using CODATA 2006 constant values                                       *
 *    (http://physics.nist.gov/cuu/Constants/index.html)                      *
 * -> Using Bohr value from CODATA                                            *
 ******************************************************************************
 

 Running in serial (with parallel executable)
 
                                    ------
                                    SYSTEM
                                    ------
 
                              Lattice Vectors (Ang)
                    a_1    -2.432387   0.000000   2.432387
                    a_2     0.000000   2.432387   2.432387
                    a_3    -2.432387   2.432387   0.000000
 
                   Unit Cell Volume:      28.78245  (Ang^3)
 
                        Reciprocal-Space Vectors (Ang^-1)
                    b_1    -1.291568  -1.291568   1.291568
                    b_2     1.291568   1.291568   1.291568
                    b_3    -1.291568   1.291568  -1.291568
  
 *----------------------------------------------------------------------------*
 |   Site       Fractional Coordinate          Cartesian Coordinate (Ang)     |
 +----------------------------------------------------------------------------+
 | Pb   1   0.00000   0.00000   0.00000   |    0.00000   0.00000   0.00000    |
 *----------------------------------------------------------------------------*
                                ------------
                                K-POINT GRID
                                ------------
  
             Grid size =  6 x  6 x  6      Total points =  216
  
  
 *---------------------------------- MAIN ------------------------------------*
 |  Number of Wannier Functions               :                 4             |
 |  Number of Objective Wannier Functions     :                 4             |
 |  Number of input Bloch states              :                 4             |
 |  Output verbosity (1=low, 5=high)          :                 1             |
 |  Timing Level (1=low, 5=high)              :                 1             |
 |  Optimisation (0=memory, 3=speed)          :                 3             |
 |  Length Unit                               :               Ang             |
 |  Post-processing setup (write *.nnkp)      :                 F             |
 |  Using Gamma-only branch of algorithms     :                 F             |
 *----------------------------------------------------------------------------*
 *------------------------------- WANNIERISE ---------------------------------*
 |  Total number of iterations                :               300             |
 |  Number of CG steps before reset           :                 5             |
 |  Trial step length for line search         :             2.000             |
 |  Convergence tolerence                     :         0.100E-09             |
 |  Convergence window                        :                -1             |
 |  Iterations between writing output         :                 1             |
 |  Iterations between backing up to disk     :               100             |
 |  Write r^2_nm to file                      :                 F             |
 |  Write xyz WF centres to file              :                 F             |
 |  Write on-site energies <0n|H|0n> to file  :                 F             |
 |  Use guiding centre to control phases      :                 F             |
 |  Use phases for initial projections        :                 F             |
 *----------------------------------------------------------------------------*
 *-------------------------------- PLOTTING ----------------------------------*
 |  Plotting interpolated bandstructure       :                 T             |
 |   Number of K-path sections                :                 6             |
 |   Divisions along first K-path section     :               100             |
 |   Output format                            :           gnuplot             |
 |   Output mode                              :               s-k             |
 *----------------------------------------------------------------------------*
 |   K-space path sections:                                                   |
 |    From: G       0.000  0.000  0.000     To: X       0.000  0.500  0.500   |
 |    From: X       0.000  0.500  0.500     To: W       0.250  0.500  0.750   |
 |    From: W       0.250  0.500  0.750     To: L       0.500  0.500  0.500   |
 |    From: L       0.500  0.500  0.500     To: K       0.375  0.375  0.750   |
 |    From: K       0.375  0.375  0.750     To: G       0.000  0.000  0.000   |
 |    From: G       0.000  0.000  0.000     To: L       0.500  0.500  0.500   |
 *----------------------------------------------------------------------------*
 Time to read parameters        0.012 (sec)

 *---------------------------------- K-MESH ----------------------------------*
 +----------------------------------------------------------------------------+
 |                    Distance to Nearest-Neighbour Shells                    |
 |                    ------------------------------------                    |
 |          Shell             Distance (Ang^-1)          Multiplicity         |
 |          -----             -----------------          ------------         |
 |             1                   0.372844                      8            |
 |             2                   0.430523                      6            |
 |             3                   0.608851                     12            |
 |             4                   0.713941                     24            |
 |             5                   0.745687                      8            |
 |             6                   0.861045                      6            |
 |             7                   0.938302                     24            |
 |             8                   0.962678                     24            |
 |             9                   1.054561                     24            |
 |            10                   1.118531                     32            |
 |            11                   1.217702                     12            |
 |            12                   1.273503                     48            |
 |            13                   1.291568                     30            |
 |            14                   1.361432                     24            |
 |            15                   1.411563                     24            |
 |            16                   1.427882                     24            |
 |            17                   1.491374                      8            |
 |            18                   1.537273                     48            |
 |            19                   1.552272                     24            |
 |            20                   1.610868                     48            |
 |            21                   1.653454                     72            |
 |            22                   1.722091                      6            |
 |            23                   1.761990                     24            |
 |            24                   1.775090                     48            |
 |            25                   1.826553                     36            |
 |            26                   1.864218                     56            |
 |            27                   1.876605                     24            |
 |            28                   1.925356                     24            |
 |            29                   1.961124                     72            |
 |            30                   1.972903                     48            |
 |            31                   2.019330                     24            |
 |            32                   2.053462                     48            |
 |            33                   2.109122                     24            |
 |            34                   2.141823                     72            |
 |            35                   2.152613                     30            |
 |            36                   2.195243                     72            |
 +----------------------------------------------------------------------------+
 | The b-vectors are chosen automatically                                     |
 | The following shells are used:   1                                         |
 +----------------------------------------------------------------------------+
 |                        Shell   # Nearest-Neighbours                        |
 |                        -----   --------------------                        |
 |                          1               8                                 |
 +----------------------------------------------------------------------------+
 | Completeness relation is fully satisfied [Eq. (B1), PRB 56, 12847 (1997)]  |
 +----------------------------------------------------------------------------+
 |                  b_k Vectors (Ang^-1) and Weights (Ang^2)                  |
 |                  ----------------------------------------                  |
 |            No.         b_k(x)      b_k(y)      b_k(z)        w_b           |
 |            ---        --------------------------------     --------        |
 |             1        -0.215261    0.215261   -0.215261     2.697602        |
 |             2         0.215261    0.215261    0.215261     2.697602        |
 |             3        -0.215261   -0.215261    0.215261     2.697602        |
 |             4        -0.215261    0.215261    0.215261     2.697602        |
 |             5         0.215261   -0.215261    0.215261     2.697602        |
 |             6        -0.215261   -0.215261   -0.215261     2.697602        |
 |             7         0.215261    0.215261   -0.215261     2.697602        |
 |             8         0.215261   -0.215261   -0.215261     2.697602        |
 +----------------------------------------------------------------------------+
 |                           b_k Directions (Ang^-1)                          |
 |                           -----------------------                          |
 |            No.           x           y           z                         |
 |            ---        --------------------------------                     |
 |             1        -0.215261    0.215261   -0.215261                     |
 |             2         0.215261    0.215261    0.215261                     |
 |             3        -0.215261   -0.215261    0.215261                     |
 |             4        -0.215261    0.215261    0.215261                     |
 +----------------------------------------------------------------------------+
  
 Time to get kmesh              0.090 (sec)
 *============================================================================*
 |                              MEMORY ESTIMATE                               |
 |         Maximum RAM allocated during each phase of the calculation         |
 *============================================================================*
 |                            Wannierise:            1.41 Mb                  |
 |                          plot_wannier:            1.41 Mb                  |
 *----------------------------------------------------------------------------*
  
 Starting a new Wannier90 calculation ...


 Reading overlaps from pb.mmn    :  intw2W90::CONVOLUTION-IBZ time:: 15:30:29 day:: 2

 Reading projections from pb.amn :  intw2W90::CONVOLUTION time:: 15:30:33 day:: 20/06

 Time to read overlaps          0.022 (sec)

 done

 
 *------------------------------- WANNIERISE ---------------------------------*
 +--------------------------------------------------------------------+<-- CONV
 | Iter  Delta Spread     RMS Gradient      Spread (Ang^2)      Time  |<-- CONV
 +--------------------------------------------------------------------+<-- CONV
 
 ------------------------------------------------------------------------------
 Initial State
  WF centre and spread    1  (  0.000000, -0.000000, -0.000000 )     1.66621072
  WF centre and spread    2  (  0.000000,  0.000000,  0.000000 )     2.96062019
  WF centre and spread    3  ( -0.000000,  0.000000, -0.000000 )     2.96062015
  WF centre and spread    4  (  0.000000,  0.000000,  0.000000 )     2.96062008
  Sum of centres and spreads ( -0.000000,  0.000000,  0.000000 )    10.54807114
 
      0     0.105E+02     0.0000000000       10.5480711418       0.00  <-- CONV
        O_D=      0.0000000 O_OD=      3.3476879 O_TOT=     10.5480711 <-- SPRD
 ------------------------------------------------------------------------------
 Cycle:      1
  WF centre and spread    1  (  0.000000, -0.000000, -0.000000 )     1.63294401
  WF centre and spread    2  (  0.000000,  0.000000,  0.000000 )     2.95894037
  WF centre and spread    3  ( -0.000000,  0.000000, -0.000000 )     2.95894017
  WF centre and spread    4  (  0.000000,  0.000000,  0.000000 )     2.95893994
  Sum of centres and spreads ( -0.000000,  0.000000,  0.000000 )    10.50976449
 
      1    -0.383E-01     0.1021643768       10.5097644947       0.01  <-- CONV
        O_D=      0.0000000 O_OD=      3.3093813 O_TOT=     10.5097645 <-- SPRD
 Delta: O_D=  0.1231777E-11 O_OD= -0.3830665E-01 O_TOT= -0.3830665E-01 <-- DLTA
 ------------------------------------------------------------------------------
 Cycle:      2
  WF centre and spread    1  (  0.000000, -0.000000, -0.000000 )     1.62377564
  WF centre and spread    2  (  0.000000,  0.000000,  0.000000 )     2.95875552
  WF centre and spread    3  ( -0.000000,  0.000000, -0.000000 )     2.95875538
  WF centre and spread    4  (  0.000000,  0.000000,  0.000000 )     2.95875521
  Sum of centres and spreads ( -0.000000,  0.000000,  0.000000 )    10.50004175
 
      2    -0.972E-02     0.0621707079       10.5000417462       0.01  <-- CONV
        O_D=      0.0000000 O_OD=      3.2996585 O_TOT=     10.5000417 <-- SPRD
 Delta: O_D=  0.3244822E-11 O_OD= -0.9722749E-02 O_TOT= -0.9722749E-02 <-- DLTA
 ------------------------------------------------------------------------------
 Cycle:      3
  WF centre and spread    1  (  0.000000, -0.000000, -0.000000 )     1.62290367
  WF centre and spread    2  (  0.000000,  0.000000,  0.000000 )     2.95867156
  WF centre and spread    3  ( -0.000000,  0.000000, -0.000000 )     2.95867145
  WF centre and spread    4  (  0.000000,  0.000000,  0.000000 )     2.95867135
  Sum of centres and spreads ( -0.000000,  0.000000,  0.000000 )    10.49891803
 
      3    -0.112E-02     0.0262753791       10.4989180296       0.02  <-- CONV
        O_D=      0.0000000 O_OD=      3.2985348 O_TOT=     10.4989180 <-- SPRD
 Delta: O_D=  0.9145310E-12 O_OD= -0.1123717E-02 O_TOT= -0.1123717E-02 <-- DLTA
 ------------------------------------------------------------------------------
 Cycle:      4
  WF centre and spread    1  (  0.000000, -0.000000, -0.000000 )     1.62275065
  WF centre and spread    2  (  0.000000,  0.000000,  0.000000 )     2.95868165
  WF centre and spread    3  ( -0.000000,  0.000000, -0.000000 )     2.95868154
  WF centre and spread    4  (  0.000000,  0.000000,  0.000000 )     2.95868145
  Sum of centres and spreads ( -0.000000,  0.000000,  0.000000 )    10.49879528
 
      4    -0.123E-03     0.0101013205       10.4987952838       0.02  <-- CONV
        O_D=      0.0000000 O_OD=      3.2984121 O_TOT=     10.4987953 <-- SPRD
 Delta: O_D= -0.3774345E-11 O_OD= -0.1227458E-03 O_TOT= -0.1227458E-03 <-- DLTA
 ------------------------------------------------------------------------------
 Cycle:      5
  WF centre and spread    1  (  0.000000, -0.000000, -0.000000 )     1.62271819
  WF centre and spread    2  (  0.000000,  0.000000,  0.000000 )     2.95868917
  WF centre and spread    3  ( -0.000000,  0.000000, -0.000000 )     2.95868907
  WF centre and spread    4  (  0.000000,  0.000000,  0.000000 )     2.95868899
  Sum of centres and spreads ( -0.000000,  0.000000,  0.000000 )    10.49878542
 
      5    -0.986E-05     0.0027024445       10.4987854241       0.03  <-- CONV
        O_D=      0.0000000 O_OD=      3.2984022 O_TOT=     10.4987854 <-- SPRD
 Delta: O_D= -0.5026723E-12 O_OD= -0.9859659E-05 O_TOT= -0.9859660E-05 <-- DLTA
 ------------------------------------------------------------------------------
 Cycle:      6
  WF centre and spread    1  (  0.000000, -0.000000, -0.000000 )     1.62271326
  WF centre and spread    2  (  0.000000,  0.000000,  0.000000 )     2.95869022
  WF centre and spread    3  ( -0.000000,  0.000000, -0.000000 )     2.95869014
  WF centre and spread    4  (  0.000000,  0.000000,  0.000000 )     2.95869008
  Sum of centres and spreads ( -0.000000,  0.000000,  0.000000 )    10.49878371
 
      6    -0.172E-05     0.0010823473       10.4987837059       0.03  <-- CONV
        O_D=      0.0000000 O_OD=      3.2984005 O_TOT=     10.4987837 <-- SPRD
 Delta: O_D= -0.2118697E-12 O_OD= -0.1718195E-05 O_TOT= -0.1718195E-05 <-- DLTA
 ------------------------------------------------------------------------------
 Cycle:      7
  WF centre and spread    1  (  0.000000, -0.000000, -0.000000 )     1.62272218
  WF centre and spread    2  (  0.000000,  0.000000,  0.000000 )     2.95868722
  WF centre and spread    3  ( -0.000000,  0.000000, -0.000000 )     2.95868714
  WF centre and spread    4  (  0.000000,  0.000000,  0.000000 )     2.95868709
  Sum of centres and spreads ( -0.000000,  0.000000,  0.000000 )    10.49878363
 
      7    -0.804E-07     0.0002198194       10.4987836256       0.04  <-- CONV
        O_D=      0.0000000 O_OD=      3.2984004 O_TOT=     10.4987836 <-- SPRD
 Delta: O_D=  0.1791950E-11 O_OD= -0.8035497E-07 O_TOT= -0.8035317E-07 <-- DLTA
 ------------------------------------------------------------------------------
 Cycle:      8
  WF centre and spread    1  (  0.000000, -0.000000, -0.000000 )     1.62273084
  WF centre and spread    2  (  0.000000,  0.000000,  0.000000 )     2.95868431
  WF centre and spread    3  ( -0.000000,  0.000000, -0.000000 )     2.95868425
  WF centre and spread    4  (  0.000000,  0.000000,  0.000000 )     2.95868420
  Sum of centres and spreads ( -0.000000,  0.000000,  0.000000 )    10.49878360
 
      8    -0.214E-07     0.0000999958       10.4987836042       0.04  <-- CONV
        O_D=      0.0000000 O_OD=      3.2984004 O_TOT=     10.4987836 <-- SPRD
 Delta: O_D=  0.8188403E-11 O_OD= -0.2137509E-07 O_TOT= -0.2136691E-07 <-- DLTA
 ------------------------------------------------------------------------------
 Cycle:      9
  WF centre and spread    1  (  0.000000, -0.000000, -0.000000 )     1.62273583
  WF centre and spread    2  (  0.000000,  0.000000,  0.000000 )     2.95868264
  WF centre and spread    3  ( -0.000000,  0.000000, -0.000000 )     2.95868258
  WF centre and spread    4  (  0.000000,  0.000000,  0.000000 )     2.95868255
  Sum of centres and spreads ( -0.000000,  0.000000,  0.000000 )    10.49878360
 
      9    -0.715E-08     0.0000631206       10.4987835971       0.05  <-- CONV
        O_D=      0.0000000 O_OD=      3.2984004 O_TOT=     10.4987836 <-- SPRD
 Delta: O_D=  0.1249391E-10 O_OD= -0.7161593E-08 O_TOT= -0.7149099E-08 <-- DLTA
 ------------------------------------------------------------------------------
 Cycle:     10
  WF centre and spread    1  (  0.000000, -0.000000, -0.000000 )     1.62273750
  WF centre and spread    2  (  0.000000,  0.000000,  0.000000 )     2.95868208
  WF centre and spread    3  ( -0.000000,  0.000000, -0.000000 )     2.95868203
  WF centre and spread    4  (  0.000000,  0.000000,  0.000000 )     2.95868199
  Sum of centres and spreads ( -0.000000,  0.000000,  0.000000 )    10.49878360
 
     10    -0.188E-08     0.0000368117       10.4987835952       0.05  <-- CONV
        O_D=      0.0000000 O_OD=      3.2984004 O_TOT=     10.4987836 <-- SPRD
 Delta: O_D=  0.5486262E-12 O_OD= -0.1882222E-08 O_TOT= -0.1881673E-08 <-- DLTA
 ------------------------------------------------------------------------------
 Cycle:     11
  WF centre and spread    1  (  0.000000, -0.000000, -0.000000 )     1.62273798
  WF centre and spread    2  (  0.000000,  0.000000,  0.000000 )     2.95868192
  WF centre and spread    3  ( -0.000000,  0.000000, -0.000000 )     2.95868187
  WF centre and spread    4  (  0.000000,  0.000000,  0.000000 )     2.95868183
  Sum of centres and spreads ( -0.000000,  0.000000,  0.000000 )    10.49878359
 
     11    -0.561E-09     0.0000205586       10.4987835946       0.06  <-- CONV
        O_D=      0.0000000 O_OD=      3.2984004 O_TOT=     10.4987836 <-- SPRD
 Delta: O_D= -0.9880112E-11 O_OD= -0.5514265E-09 O_TOT= -0.5613074E-09 <-- DLTA
 ------------------------------------------------------------------------------
 Cycle:     12
  WF centre and spread    1  (  0.000000, -0.000000, -0.000000 )     1.62273800
  WF centre and spread    2  (  0.000000,  0.000000,  0.000000 )     2.95868191
  WF centre and spread    3  ( -0.000000,  0.000000, -0.000000 )     2.95868186
  WF centre and spread    4  (  0.000000,  0.000000,  0.000000 )     2.95868183
  Sum of centres and spreads ( -0.000000,  0.000000,  0.000000 )    10.49878359
 
     12    -0.733E-10     0.0000087977       10.4987835945       0.06  <-- CONV
        O_D=      0.0000000 O_OD=      3.2984004 O_TOT=     10.4987836 <-- SPRD
 Delta: O_D= -0.1421323E-10 O_OD= -0.5905854E-10 O_TOT= -0.7327117E-10 <-- DLTA
 ------------------------------------------------------------------------------
 Cycle:     13
  WF centre and spread    1  (  0.000000, -0.000000, -0.000000 )     1.62273800
  WF centre and spread    2  (  0.000000,  0.000000,  0.000000 )     2.95868191
  WF centre and spread    3  ( -0.000000,  0.000000, -0.000000 )     2.95868186
  WF centre and spread    4  (  0.000000,  0.000000,  0.000000 )     2.95868183
  Sum of centres and spreads ( -0.000000,  0.000000,  0.000000 )    10.49878359
 
     13    -0.762E-12     0.0000036825       10.4987835945       0.07  <-- CONV
        O_D=      0.0000000 O_OD=      3.2984004 O_TOT=     10.4987836 <-- SPRD
 Delta: O_D= -0.6992232E-15 O_OD= -0.7611689E-12 O_TOT= -0.7620571E-12 <-- DLTA
 ------------------------------------------------------------------------------
 Cycle:     14
  WF centre and spread    1  (  0.000000, -0.000000, -0.000000 )     1.62273800
  WF centre and spread    2  (  0.000000,  0.000000,  0.000000 )     2.95868191
  WF centre and spread    3  ( -0.000000,  0.000000, -0.000000 )     2.95868186
  WF centre and spread    4  (  0.000000,  0.000000,  0.000000 )     2.95868183
  Sum of centres and spreads ( -0.000000,  0.000000,  0.000000 )    10.49878359
 
     14    -0.627E-12     0.0000036155       10.4987835945       0.07  <-- CONV
        O_D=      0.0000000 O_OD=      3.2984004 O_TOT=     10.4987836 <-- SPRD
 Delta: O_D= -0.4921069E-15 O_OD= -0.6270540E-12 O_TOT= -0.6270540E-12 <-- DLTA
 ------------------------------------------------------------------------------
 Cycle:     15
  WF centre and spread    1  (  0.000000, -0.000000, -0.000000 )     1.62273794
  WF centre and spread    2  (  0.000000,  0.000000,  0.000000 )     2.95868193
  WF centre and spread    3  ( -0.000000,  0.000000, -0.000000 )     2.95868188
  WF centre and spread    4  (  0.000000,  0.000000,  0.000000 )     2.95868185
  Sum of centres and spreads ( -0.000000,  0.000000,  0.000000 )    10.49878359
 
     15    -0.199E-10     0.0000035659       10.4987835945       0.08  <-- CONV
        O_D=      0.0000000 O_OD=      3.2984004 O_TOT=     10.4987836 <-- SPRD
 Delta: O_D=  0.2899275E-13 O_OD= -0.1988143E-10 O_TOT= -0.1985256E-10 <-- DLTA
 ------------------------------------------------------------------------------
 Cycle:     16
  WF centre and spread    1  (  0.000000, -0.000000, -0.000000 )     1.62273794
  WF centre and spread    2  (  0.000000,  0.000000,  0.000000 )     2.95868193
  WF centre and spread    3  ( -0.000000,  0.000000, -0.000000 )     2.95868188
  WF centre and spread    4  (  0.000000,  0.000000,  0.000000 )     2.95868185
  Sum of centres and spreads ( -0.000000,  0.000000,  0.000000 )    10.49878359
 
     16    -0.131E-12     0.0000024500       10.4987835945       0.08  <-- CONV
        O_D=      0.0000000 O_OD=      3.2984004 O_TOT=     10.4987836 <-- SPRD
 Delta: O_D= -0.2035135E-14 O_OD= -0.1305622E-12 O_TOT= -0.1314504E-12 <-- DLTA
 ------------------------------------------------------------------------------
 Cycle:     17
  WF centre and spread    1  (  0.000000, -0.000000, -0.000000 )     1.62273792
  WF centre and spread    2  (  0.000000,  0.000000,  0.000000 )     2.95868194
  WF centre and spread    3  ( -0.000000,  0.000000, -0.000000 )     2.95868189
  WF centre and spread    4  (  0.000000,  0.000000,  0.000000 )     2.95868185
  Sum of centres and spreads ( -0.000000,  0.000000,  0.000000 )    10.49878359
 
     17    -0.250E-11     0.0000024398       10.4987835945       0.09  <-- CONV
        O_D=      0.0000000 O_OD=      3.2984004 O_TOT=     10.4987836 <-- SPRD
 Delta: O_D= -0.2721218E-13 O_OD= -0.2469136E-11 O_TOT= -0.2497558E-11 <-- DLTA
 ------------------------------------------------------------------------------
 Cycle:     18
  WF centre and spread    1  (  0.000000, -0.000000, -0.000000 )     1.62273791
  WF centre and spread    2  (  0.000000,  0.000000,  0.000000 )     2.95868194
  WF centre and spread    3  ( -0.000000,  0.000000, -0.000000 )     2.95868189
  WF centre and spread    4  (  0.000000,  0.000000,  0.000000 )     2.95868186
  Sum of centres and spreads ( -0.000000,  0.000000,  0.000000 )    10.49878359
 
     18    -0.142E-12     0.0000017982       10.4987835945       0.09  <-- CONV
        O_D=      0.0000000 O_OD=      3.2984004 O_TOT=     10.4987836 <-- SPRD
 Delta: O_D= -0.8371892E-15 O_OD= -0.1407763E-12 O_TOT= -0.1421085E-12 <-- DLTA
 ------------------------------------------------------------------------------
 Cycle:     19
  WF centre and spread    1  (  0.000000, -0.000000, -0.000000 )     1.62273791
  WF centre and spread    2  (  0.000000,  0.000000,  0.000000 )     2.95868194
  WF centre and spread    3  ( -0.000000,  0.000000, -0.000000 )     2.95868189
  WF centre and spread    4  (  0.000000,  0.000000,  0.000000 )     2.95868186
  Sum of centres and spreads ( -0.000000,  0.000000,  0.000000 )    10.49878359
 
     19    -0.306E-12     0.0000017537       10.4987835945       0.10  <-- CONV
        O_D=      0.0000000 O_OD=      3.2984004 O_TOT=     10.4987836 <-- SPRD
 Delta: O_D= -0.8928678E-15 O_OD= -0.3050893E-12 O_TOT= -0.3055334E-12 <-- DLTA
 ------------------------------------------------------------------------------
 Cycle:     20
  WF centre and spread    1  (  0.000000, -0.000000, -0.000000 )     1.62273791
  WF centre and spread    2  (  0.000000,  0.000000,  0.000000 )     2.95868194
  WF centre and spread    3  ( -0.000000,  0.000000, -0.000000 )     2.95868189
  WF centre and spread    4  (  0.000000,  0.000000,  0.000000 )     2.95868186
  Sum of centres and spreads ( -0.000000,  0.000000,  0.000000 )    10.49878359
 
     20    -0.597E-12     0.0000016600       10.4987835945       0.10  <-- CONV
        O_D=      0.0000000 O_OD=      3.2984004 O_TOT=     10.4987836 <-- SPRD
 Delta: O_D= -0.1448687E-14 O_OD= -0.5964118E-12 O_TOT= -0.5968559E-12 <-- DLTA
 ------------------------------------------------------------------------------
 Cycle:     21
  WF centre and spread    1  (  0.000000, -0.000000, -0.000000 )     1.62273790
  WF centre and spread    2  (  0.000000,  0.000000,  0.000000 )     2.95868194
  WF centre and spread    3  ( -0.000000,  0.000000, -0.000000 )     2.95868189
  WF centre and spread    4  (  0.000000,  0.000000,  0.000000 )     2.95868186
  Sum of centres and spreads ( -0.000000,  0.000000,  0.000000 )    10.49878359
 
     21    -0.217E-11     0.0000014844       10.4987835945       0.11  <-- CONV
        O_D=      0.0000000 O_OD=      3.2984004 O_TOT=     10.4987836 <-- SPRD
 Delta: O_D= -0.2894815E-14 O_OD= -0.2165823E-11 O_TOT= -0.2170708E-11 <-- DLTA
 ------------------------------------------------------------------------------
 Cycle:     22
  WF centre and spread    1  (  0.000000, -0.000000, -0.000000 )     1.62273790
  WF centre and spread    2  (  0.000000,  0.000000,  0.000000 )     2.95868194
  WF centre and spread    3  ( -0.000000,  0.000000, -0.000000 )     2.95868189
  WF centre and spread    4  (  0.000000,  0.000000,  0.000000 )     2.95868186
  Sum of centres and spreads ( -0.000000,  0.000000,  0.000000 )    10.49878359
 
     22     0.178E-13     0.0000006040       10.4987835945       0.12  <-- CONV
        O_D=      0.0000000 O_OD=      3.2984004 O_TOT=     10.4987836 <-- SPRD
 Delta: O_D=  0.1766717E-17 O_OD=  0.1687539E-13 O_TOT=  0.1776357E-13 <-- DLTA
 ------------------------------------------------------------------------------
 Cycle:     23
  WF centre and spread    1  (  0.000000, -0.000000, -0.000000 )     1.62273790
  WF centre and spread    2  (  0.000000,  0.000000,  0.000000 )     2.95868194
  WF centre and spread    3  ( -0.000000,  0.000000, -0.000000 )     2.95868189
  WF centre and spread    4  (  0.000000,  0.000000,  0.000000 )     2.95868186
  Sum of centres and spreads ( -0.000000,  0.000000,  0.000000 )    10.49878359
 
     23     0.124E-13     0.0000006013       10.4987835945       0.12  <-- CONV
        O_D=      0.0000000 O_OD=      3.2984004 O_TOT=     10.4987836 <-- SPRD
 Delta: O_D= -0.3087761E-19 O_OD=  0.1243450E-13 O_TOT=  0.1243450E-13 <-- DLTA
 ------------------------------------------------------------------------------
 Cycle:     24
  WF centre and spread    1  (  0.000000, -0.000000, -0.000000 )     1.62273790
  WF centre and spread    2  (  0.000000,  0.000000,  0.000000 )     2.95868194
  WF centre and spread    3  ( -0.000000,  0.000000, -0.000000 )     2.95868189
  WF centre and spread    4  (  0.000000,  0.000000,  0.000000 )     2.95868186
  Sum of centres and spreads ( -0.000000,  0.000000,  0.000000 )    10.49878359
 
     24    -0.409E-13     0.0000005973       10.4987835945       0.12  <-- CONV
        O_D=      0.0000000 O_OD=      3.2984004 O_TOT=     10.4987836 <-- SPRD
 Delta: O_D= -0.5620473E-17 O_OD= -0.4174439E-13 O_TOT= -0.4085621E-13 <-- DLTA
 ------------------------------------------------------------------------------
 Cycle:     25
  WF centre and spread    1  (  0.000000, -0.000000, -0.000000 )     1.62273790
  WF centre and spread    2  (  0.000000,  0.000000,  0.000000 )     2.95868194
  WF centre and spread    3  ( -0.000000,  0.000000, -0.000000 )     2.95868189
  WF centre and spread    4  (  0.000000,  0.000000,  0.000000 )     2.95868186
  Sum of centres and spreads ( -0.000000,  0.000000,  0.000000 )    10.49878359
 
     25    -0.888E-14     0.0000005805       10.4987835945       0.13  <-- CONV
        O_D=      0.0000000 O_OD=      3.2984004 O_TOT=     10.4987836 <-- SPRD
 Delta: O_D= -0.1850259E-17 O_OD= -0.8437695E-14 O_TOT= -0.8881784E-14 <-- DLTA
 ------------------------------------------------------------------------------
 Cycle:     26
  WF centre and spread    1  (  0.000000, -0.000000, -0.000000 )     1.62273790
  WF centre and spread    2  (  0.000000,  0.000000,  0.000000 )     2.95868194
  WF centre and spread    3  ( -0.000000,  0.000000, -0.000000 )     2.95868189
  WF centre and spread    4  (  0.000000,  0.000000,  0.000000 )     2.95868186
  Sum of centres and spreads ( -0.000000,  0.000000,  0.000000 )    10.49878359
 
     26     0.124E-13     0.0000005790       10.4987835945       0.13  <-- CONV
        O_D=      0.0000000 O_OD=      3.2984004 O_TOT=     10.4987836 <-- SPRD
 Delta: O_D= -0.8014810E-17 O_OD=  0.1243450E-13 O_TOT=  0.1243450E-13 <-- DLTA
 ------------------------------------------------------------------------------
 Cycle:     27
  WF centre and spread    1  (  0.000000, -0.000000, -0.000000 )     1.62273790
  WF centre and spread    2  (  0.000000,  0.000000,  0.000000 )     2.95868194
  WF centre and spread    3  ( -0.000000,  0.000000, -0.000000 )     2.95868189
  WF centre and spread    4  (  0.000000,  0.000000,  0.000000 )     2.95868186
  Sum of centres and spreads ( -0.000000,  0.000000,  0.000000 )    10.49878359
 
     27    -0.426E-13     0.0000005727       10.4987835945       0.14  <-- CONV
        O_D=      0.0000000 O_OD=      3.2984004 O_TOT=     10.4987836 <-- SPRD
 Delta: O_D= -0.1476555E-16 O_OD= -0.4130030E-13 O_TOT= -0.4263256E-13 <-- DLTA
 ------------------------------------------------------------------------------
 Cycle:     28
  WF centre and spread    1  (  0.000000, -0.000000, -0.000000 )     1.62273790
  WF centre and spread    2  (  0.000000,  0.000000,  0.000000 )     2.95868194
  WF centre and spread    3  ( -0.000000,  0.000000, -0.000000 )     2.95868189
  WF centre and spread    4  (  0.000000,  0.000000,  0.000000 )     2.95868186
  Sum of centres and spreads ( -0.000000,  0.000000,  0.000000 )    10.49878359
 
     28    -0.604E-13     0.0000005604       10.4987835945       0.14  <-- CONV
        O_D=      0.0000000 O_OD=      3.2984004 O_TOT=     10.4987836 <-- SPRD
 Delta: O_D= -0.1755147E-16 O_OD= -0.6039613E-13 O_TOT= -0.6039613E-13 <-- DLTA
 ------------------------------------------------------------------------------
 Cycle:     29
  WF centre and spread    1  (  0.000000, -0.000000, -0.000000 )     1.62273790
  WF centre and spread    2  (  0.000000,  0.000000,  0.000000 )     2.95868194
  WF centre and spread    3  ( -0.000000,  0.000000, -0.000000 )     2.95868189
  WF centre and spread    4  (  0.000000,  0.000000,  0.000000 )     2.95868186
  Sum of centres and spreads ( -0.000000,  0.000000,  0.000000 )    10.49878359
 
     29     0.231E-13     0.0000005447       10.4987835945       0.15  <-- CONV
        O_D=      0.0000000 O_OD=      3.2984004 O_TOT=     10.4987836 <-- SPRD
 Delta: O_D= -0.7345693E-17 O_OD=  0.2176037E-13 O_TOT=  0.2309264E-13 <-- DLTA
 ------------------------------------------------------------------------------
 Cycle:     30
  WF centre and spread    1  (  0.000000, -0.000000, -0.000000 )     1.62273790
  WF centre and spread    2  (  0.000000,  0.000000,  0.000000 )     2.95868194
  WF centre and spread    3  ( -0.000000,  0.000000, -0.000000 )     2.95868189
  WF centre and spread    4  (  0.000000,  0.000000,  0.000000 )     2.95868186
  Sum of centres and spreads ( -0.000000,  0.000000,  0.000000 )    10.49878359
 
     30    -0.462E-13     0.0000005377       10.4987835945       0.15  <-- CONV
        O_D=      0.0000000 O_OD=      3.2984004 O_TOT=     10.4987836 <-- SPRD
 Delta: O_D= -0.2090874E-16 O_OD= -0.4574119E-13 O_TOT= -0.4618528E-13 <-- DLTA
 ------------------------------------------------------------------------------
 Cycle:     31
  WF centre and spread    1  (  0.000000, -0.000000, -0.000000 )     1.62273790
  WF centre and spread    2  (  0.000000,  0.000000,  0.000000 )     2.95868194
  WF centre and spread    3  ( -0.000000,  0.000000, -0.000000 )     2.95868189
  WF centre and spread    4  (  0.000000,  0.000000,  0.000000 )     2.95868186
  Sum of centres and spreads ( -0.000000,  0.000000,  0.000000 )    10.49878359
 
     31    -0.888E-14     0.0000005159       10.4987835945       0.15  <-- CONV
        O_D=      0.0000000 O_OD=      3.2984004 O_TOT=     10.4987836 <-- SPRD
 Delta: O_D= -0.5141482E-18 O_OD= -0.8881784E-14 O_TOT= -0.8881784E-14 <-- DLTA
 ------------------------------------------------------------------------------
 Cycle:     32
  WF centre and spread    1  (  0.000000, -0.000000, -0.000000 )     1.62273790
  WF centre and spread    2  (  0.000000,  0.000000,  0.000000 )     2.95868194
  WF centre and spread    3  ( -0.000000,  0.000000, -0.000000 )     2.95868189
  WF centre and spread    4  (  0.000000,  0.000000,  0.000000 )     2.95868186
  Sum of centres and spreads ( -0.000000,  0.000000,  0.000000 )    10.49878359
 
     32     0.195E-13     0.0000005152       10.4987835945       0.16  <-- CONV
        O_D=      0.0000000 O_OD=      3.2984004 O_TOT=     10.4987836 <-- SPRD
 Delta: O_D= -0.3229636E-17 O_OD=  0.1998401E-13 O_TOT=  0.1953993E-13 <-- DLTA
 ------------------------------------------------------------------------------
 Cycle:     33
  WF centre and spread    1  (  0.000000, -0.000000, -0.000000 )     1.62273790
  WF centre and spread    2  (  0.000000,  0.000000,  0.000000 )     2.95868194
  WF centre and spread    3  ( -0.000000,  0.000000, -0.000000 )     2.95868189
  WF centre and spread    4  (  0.000000,  0.000000,  0.000000 )     2.95868186
  Sum of centres and spreads ( -0.000000,  0.000000,  0.000000 )    10.49878359
 
     33    -0.338E-13     0.0000005110       10.4987835945       0.16  <-- CONV
        O_D=      0.0000000 O_OD=      3.2984004 O_TOT=     10.4987836 <-- SPRD
 Delta: O_D= -0.7827965E-17 O_OD= -0.3419487E-13 O_TOT= -0.3375078E-13 <-- DLTA
 ------------------------------------------------------------------------------
 Cycle:     34
  WF centre and spread    1  (  0.000000, -0.000000, -0.000000 )     1.62273789
  WF centre and spread    2  (  0.000000,  0.000000,  0.000000 )     2.95868195
  WF centre and spread    3  ( -0.000000,  0.000000, -0.000000 )     2.95868189
  WF centre and spread    4  (  0.000000,  0.000000,  0.000000 )     2.95868186
  Sum of centres and spreads ( -0.000000,  0.000000,  0.000000 )    10.49878359
 
     34    -0.213E-13     0.0000005005       10.4987835945       0.17  <-- CONV
        O_D=      0.0000000 O_OD=      3.2984004 O_TOT=     10.4987836 <-- SPRD
 Delta: O_D= -0.2970464E-16 O_OD= -0.2220446E-13 O_TOT= -0.2131628E-13 <-- DLTA
 ------------------------------------------------------------------------------
 Cycle:     35
  WF centre and spread    1  (  0.000000, -0.000000, -0.000000 )     1.62273789
  WF centre and spread    2  (  0.000000,  0.000000,  0.000000 )     2.95868195
  WF centre and spread    3  ( -0.000000,  0.000000, -0.000000 )     2.95868189
  WF centre and spread    4  (  0.000000,  0.000000,  0.000000 )     2.95868186
  Sum of centres and spreads ( -0.000000,  0.000000,  0.000000 )    10.49878359
 
     35    -0.764E-13     0.0000004534       10.4987835945       0.17  <-- CONV
        O_D=      0.0000000 O_OD=      3.2984004 O_TOT=     10.4987836 <-- SPRD
 Delta: O_D= -0.6780338E-17 O_OD= -0.7505108E-13 O_TOT= -0.7638334E-13 <-- DLTA
 ------------------------------------------------------------------------------
 Cycle:     36
  WF centre and spread    1  (  0.000000, -0.000000, -0.000000 )     1.62273789
  WF centre and spread    2  (  0.000000,  0.000000,  0.000000 )     2.95868195
  WF centre and spread    3  ( -0.000000,  0.000000, -0.000000 )     2.95868189
  WF centre and spread    4  (  0.000000,  0.000000,  0.000000 )     2.95868186
  Sum of centres and spreads ( -0.000000,  0.000000,  0.000000 )    10.49878359
 
     36     0.533E-14     0.0000004397       10.4987835945       0.18  <-- CONV
        O_D=      0.0000000 O_OD=      3.2984004 O_TOT=     10.4987836 <-- SPRD
 Delta: O_D= -0.2827196E-17 O_OD=  0.4440892E-14 O_TOT=  0.5329071E-14 <-- DLTA
 ------------------------------------------------------------------------------
 Cycle:     37
  WF centre and spread    1  (  0.000000, -0.000000, -0.000000 )     1.62273789
  WF centre and spread    2  (  0.000000,  0.000000,  0.000000 )     2.95868195
  WF centre and spread    3  ( -0.000000,  0.000000, -0.000000 )     2.95868189
  WF centre and spread    4  (  0.000000,  0.000000,  0.000000 )     2.95868186
  Sum of centres and spreads ( -0.000000,  0.000000,  0.000000 )    10.49878359
 
     37     0.124E-13     0.0000004332       10.4987835945       0.18  <-- CONV
        O_D=      0.0000000 O_OD=      3.2984004 O_TOT=     10.4987836 <-- SPRD
 Delta: O_D= -0.8557494E-19 O_OD=  0.1243450E-13 O_TOT=  0.1243450E-13 <-- DLTA
 ------------------------------------------------------------------------------
 Cycle:     38
  WF centre and spread    1  (  0.000000, -0.000000, -0.000000 )     1.62273789
  WF centre and spread    2  (  0.000000,  0.000000,  0.000000 )     2.95868195
  WF centre and spread    3  ( -0.000000,  0.000000, -0.000000 )     2.95868189
  WF centre and spread    4  (  0.000000,  0.000000,  0.000000 )     2.95868186
  Sum of centres and spreads ( -0.000000,  0.000000,  0.000000 )    10.49878359
 
     38    -0.391E-13     0.0000004330       10.4987835945       0.18  <-- CONV
        O_D=      0.0000000 O_OD=      3.2984004 O_TOT=     10.4987836 <-- SPRD
 Delta: O_D= -0.1841679E-17 O_OD= -0.3907985E-13 O_TOT= -0.3907985E-13 <-- DLTA
 ------------------------------------------------------------------------------
 Cycle:     39
  WF centre and spread    1  (  0.000000, -0.000000, -0.000000 )     1.62273789
  WF centre and spread    2  (  0.000000,  0.000000,  0.000000 )     2.95868195
  WF centre and spread    3  ( -0.000000,  0.000000, -0.000000 )     2.95868189
  WF centre and spread    4  (  0.000000,  0.000000,  0.000000 )     2.95868186
  Sum of centres and spreads ( -0.000000,  0.000000,  0.000000 )    10.49878359
 
     39     0.284E-13     0.0000004274       10.4987835945       0.19  <-- CONV
        O_D=      0.0000000 O_OD=      3.2984004 O_TOT=     10.4987836 <-- SPRD
 Delta: O_D= -0.6573363E-18 O_OD=  0.2886580E-13 O_TOT=  0.2842171E-13 <-- DLTA
 ------------------------------------------------------------------------------
 Cycle:     40
  WF centre and spread    1  (  0.000000, -0.000000, -0.000000 )     1.62273789
  WF centre and spread    2  (  0.000000,  0.000000,  0.000000 )     2.95868195
  WF centre and spread    3  ( -0.000000,  0.000000, -0.000000 )     2.95868189
  WF centre and spread    4  (  0.000000,  0.000000,  0.000000 )     2.95868186
  Sum of centres and spreads ( -0.000000,  0.000000,  0.000000 )    10.49878359
 
     40    -0.888E-14     0.0000004254       10.4987835945       0.20  <-- CONV
        O_D=      0.0000000 O_OD=      3.2984004 O_TOT=     10.4987836 <-- SPRD
 Delta: O_D= -0.2447071E-17 O_OD= -0.9325873E-14 O_TOT= -0.8881784E-14 <-- DLTA
 ------------------------------------------------------------------------------
 Cycle:     41
  WF centre and spread    1  (  0.000000, -0.000000, -0.000000 )     1.62273789
  WF centre and spread    2  (  0.000000,  0.000000,  0.000000 )     2.95868195
  WF centre and spread    3  ( -0.000000,  0.000000, -0.000000 )     2.95868189
  WF centre and spread    4  (  0.000000,  0.000000,  0.000000 )     2.95868186
  Sum of centres and spreads ( -0.000000,  0.000000,  0.000000 )    10.49878359
 
     41    -0.639E-13     0.0000004175       10.4987835945       0.20  <-- CONV
        O_D=      0.0000000 O_OD=      3.2984004 O_TOT=     10.4987836 <-- SPRD
 Delta: O_D= -0.3686519E-17 O_OD= -0.6439294E-13 O_TOT= -0.6394885E-13 <-- DLTA
 ------------------------------------------------------------------------------
 Cycle:     42
  WF centre and spread    1  (  0.000000, -0.000000, -0.000000 )     1.62273789
  WF centre and spread    2  (  0.000000,  0.000000,  0.000000 )     2.95868195
  WF centre and spread    3  ( -0.000000,  0.000000, -0.000000 )     2.95868189
  WF centre and spread    4  (  0.000000,  0.000000,  0.000000 )     2.95868186
  Sum of centres and spreads ( -0.000000,  0.000000,  0.000000 )    10.49878359
 
     42    -0.195E-13     0.0000004047       10.4987835945       0.20  <-- CONV
        O_D=      0.0000000 O_OD=      3.2984004 O_TOT=     10.4987836 <-- SPRD
 Delta: O_D= -0.6578573E-17 O_OD= -0.1820766E-13 O_TOT= -0.1953993E-13 <-- DLTA
 ------------------------------------------------------------------------------
 Cycle:     43
  WF centre and spread    1  (  0.000000, -0.000000, -0.000000 )     1.62273789
  WF centre and spread    2  (  0.000000,  0.000000,  0.000000 )     2.95868195
  WF centre and spread    3  ( -0.000000,  0.000000, -0.000000 )     2.95868189
  WF centre and spread    4  (  0.000000,  0.000000,  0.000000 )     2.95868186
  Sum of centres and spreads ( -0.000000,  0.000000,  0.000000 )    10.49878359
 
     43    -0.711E-14     0.0000003775       10.4987835945       0.21  <-- CONV
        O_D=      0.0000000 O_OD=      3.2984004 O_TOT=     10.4987836 <-- SPRD
 Delta: O_D= -0.3767746E-18 O_OD= -0.7993606E-14 O_TOT= -0.7105427E-14 <-- DLTA
 ------------------------------------------------------------------------------
 Cycle:     44
  WF centre and spread    1  (  0.000000, -0.000000, -0.000000 )     1.62273789
  WF centre and spread    2  (  0.000000,  0.000000,  0.000000 )     2.95868195
  WF centre and spread    3  ( -0.000000,  0.000000, -0.000000 )     2.95868189
  WF centre and spread    4  (  0.000000,  0.000000,  0.000000 )     2.95868186
  Sum of centres and spreads ( -0.000000,  0.000000,  0.000000 )    10.49878359
 
     44     0.195E-13     0.0000003752       10.4987835945       0.21  <-- CONV
        O_D=      0.0000000 O_OD=      3.2984004 O_TOT=     10.4987836 <-- SPRD
 Delta: O_D= -0.1388534E-18 O_OD=  0.2087219E-13 O_TOT=  0.1953993E-13 <-- DLTA
 ------------------------------------------------------------------------------
 Cycle:     45
  WF centre and spread    1  (  0.000000, -0.000000, -0.000000 )     1.62273789
  WF centre and spread    2  (  0.000000,  0.000000,  0.000000 )     2.95868195
  WF centre and spread    3  ( -0.000000,  0.000000, -0.000000 )     2.95868189
  WF centre and spread    4  (  0.000000,  0.000000,  0.000000 )     2.95868186
  Sum of centres and spreads ( -0.000000,  0.000000,  0.000000 )    10.49878359
 
     45    -0.355E-13     0.0000003744       10.4987835945       0.22  <-- CONV
        O_D=      0.0000000 O_OD=      3.2984004 O_TOT=     10.4987836 <-- SPRD
 Delta: O_D= -0.1058373E-17 O_OD= -0.3597123E-13 O_TOT= -0.3552714E-13 <-- DLTA
 ------------------------------------------------------------------------------
 Cycle:     46
  WF centre and spread    1  (  0.000000, -0.000000, -0.000000 )     1.62273789
  WF centre and spread    2  (  0.000000,  0.000000,  0.000000 )     2.95868195
  WF centre and spread    3  ( -0.000000,  0.000000, -0.000000 )     2.95868189
  WF centre and spread    4  (  0.000000,  0.000000,  0.000000 )     2.95868186
  Sum of centres and spreads ( -0.000000,  0.000000,  0.000000 )    10.49878359
 
     46     0.000E+00     0.0000003677       10.4987835945       0.22  <-- CONV
        O_D=      0.0000000 O_OD=      3.2984004 O_TOT=     10.4987836 <-- SPRD
 Delta: O_D= -0.1119822E-17 O_OD= -0.8881784E-15 O_TOT=  0.0000000E+00 <-- DLTA
 ------------------------------------------------------------------------------
 Cycle:     47
  WF centre and spread    1  (  0.000000, -0.000000, -0.000000 )     1.62273789
  WF centre and spread    2  (  0.000000,  0.000000,  0.000000 )     2.95868195
  WF centre and spread    3  ( -0.000000,  0.000000, -0.000000 )     2.95868190
  WF centre and spread    4  (  0.000000,  0.000000,  0.000000 )     2.95868186
  Sum of centres and spreads ( -0.000000,  0.000000,  0.000000 )    10.49878359
 
     47     0.533E-14     0.0000003602       10.4987835945       0.23  <-- CONV
        O_D=      0.0000000 O_OD=      3.2984004 O_TOT=     10.4987836 <-- SPRD
 Delta: O_D= -0.1357590E-17 O_OD=  0.6217249E-14 O_TOT=  0.5329071E-14 <-- DLTA
 ------------------------------------------------------------------------------
 Cycle:     48
  WF centre and spread    1  (  0.000000, -0.000000, -0.000000 )     1.62273789
  WF centre and spread    2  (  0.000000,  0.000000,  0.000000 )     2.95868195
  WF centre and spread    3  ( -0.000000,  0.000000, -0.000000 )     2.95868190
  WF centre and spread    4  (  0.000000,  0.000000,  0.000000 )     2.95868186
  Sum of centres and spreads ( -0.000000,  0.000000,  0.000000 )    10.49878359
 
     48    -0.515E-13     0.0000003502       10.4987835945       0.23  <-- CONV
        O_D=      0.0000000 O_OD=      3.2984004 O_TOT=     10.4987836 <-- SPRD
 Delta: O_D= -0.1398928E-17 O_OD= -0.5240253E-13 O_TOT= -0.5151435E-13 <-- DLTA
 ------------------------------------------------------------------------------
 Cycle:     49
  WF centre and spread    1  (  0.000000, -0.000000, -0.000000 )     1.62273789
  WF centre and spread    2  (  0.000000,  0.000000,  0.000000 )     2.95868195
  WF centre and spread    3  ( -0.000000,  0.000000, -0.000000 )     2.95868190
  WF centre and spread    4  (  0.000000,  0.000000,  0.000000 )     2.95868186
  Sum of centres and spreads ( -0.000000,  0.000000,  0.000000 )    10.49878359
 
     49     0.000E+00     0.0000003387       10.4987835945       0.23  <-- CONV
        O_D=      0.0000000 O_OD=      3.2984004 O_TOT=     10.4987836 <-- SPRD
 Delta: O_D= -0.1290391E-19 O_OD=  0.1332268E-14 O_TOT=  0.0000000E+00 <-- DLTA
 ------------------------------------------------------------------------------
 Cycle:     50
  WF centre and spread    1  (  0.000000, -0.000000, -0.000000 )     1.62273789
  WF centre and spread    2  (  0.000000,  0.000000,  0.000000 )     2.95868195
  WF centre and spread    3  ( -0.000000,  0.000000, -0.000000 )     2.95868190
  WF centre and spread    4  (  0.000000,  0.000000,  0.000000 )     2.95868186
  Sum of centres and spreads ( -0.000000,  0.000000,  0.000000 )    10.49878359
 
     50     0.355E-14     0.0000003385       10.4987835945       0.24  <-- CONV
        O_D=      0.0000000 O_OD=      3.2984004 O_TOT=     10.4987836 <-- SPRD
 Delta: O_D= -0.3174986E-19 O_OD=  0.1776357E-14 O_TOT=  0.3552714E-14 <-- DLTA
 ------------------------------------------------------------------------------
 Cycle:     51
  WF centre and spread    1  (  0.000000, -0.000000, -0.000000 )     1.62273789
  WF centre and spread    2  (  0.000000,  0.000000,  0.000000 )     2.95868195
  WF centre and spread    3  ( -0.000000,  0.000000, -0.000000 )     2.95868190
  WF centre and spread    4  (  0.000000,  0.000000,  0.000000 )     2.95868186
  Sum of centres and spreads ( -0.000000,  0.000000,  0.000000 )    10.49878359
 
     51     0.124E-13     0.0000003382       10.4987835945       0.24  <-- CONV
        O_D=      0.0000000 O_OD=      3.2984004 O_TOT=     10.4987836 <-- SPRD
 Delta: O_D= -0.1845166E-18 O_OD=  0.1376677E-13 O_TOT=  0.1243450E-13 <-- DLTA
 ------------------------------------------------------------------------------
 Cycle:     52
  WF centre and spread    1  (  0.000000, -0.000000, -0.000000 )     1.62273789
  WF centre and spread    2  (  0.000000,  0.000000,  0.000000 )     2.95868195
  WF centre and spread    3  ( -0.000000,  0.000000, -0.000000 )     2.95868190
  WF centre and spread    4  (  0.000000,  0.000000,  0.000000 )     2.95868186
  Sum of centres and spreads ( -0.000000,  0.000000,  0.000000 )    10.49878359
 
     52    -0.355E-14     0.0000003362       10.4987835945       0.25  <-- CONV
        O_D=      0.0000000 O_OD=      3.2984004 O_TOT=     10.4987836 <-- SPRD
 Delta: O_D= -0.1573121E-18 O_OD= -0.3552714E-14 O_TOT= -0.3552714E-14 <-- DLTA
 ------------------------------------------------------------------------------
 Cycle:     53
  WF centre and spread    1  (  0.000000, -0.000000, -0.000000 )     1.62273789
  WF centre and spread    2  (  0.000000,  0.000000,  0.000000 )     2.95868195
  WF centre and spread    3  ( -0.000000,  0.000000, -0.000000 )     2.95868190
  WF centre and spread    4  (  0.000000,  0.000000,  0.000000 )     2.95868186
  Sum of centres and spreads ( -0.000000,  0.000000,  0.000000 )    10.49878359
 
     53    -0.213E-13     0.0000003345       10.4987835945       0.25  <-- CONV
        O_D=      0.0000000 O_OD=      3.2984004 O_TOT=     10.4987836 <-- SPRD
 Delta: O_D= -0.8054195E-18 O_OD= -0.2131628E-13 O_TOT= -0.2131628E-13 <-- DLTA
 ------------------------------------------------------------------------------
 Cycle:     54
  WF centre and spread    1  (  0.000000, -0.000000, -0.000000 )     1.62273789
  WF centre and spread    2  (  0.000000,  0.000000,  0.000000 )     2.95868195
  WF centre and spread    3  ( -0.000000,  0.000000, -0.000000 )     2.95868190
  WF centre and spread    4  (  0.000000,  0.000000,  0.000000 )     2.95868186
  Sum of centres and spreads ( -0.000000,  0.000000,  0.000000 )    10.49878359
 
     54    -0.178E-13     0.0000003253       10.4987835945       0.26  <-- CONV
        O_D=      0.0000000 O_OD=      3.2984004 O_TOT=     10.4987836 <-- SPRD
 Delta: O_D= -0.1897472E-18 O_OD= -0.1776357E-13 O_TOT= -0.1776357E-13 <-- DLTA
 ------------------------------------------------------------------------------
 Cycle:     55
  WF centre and spread    1  (  0.000000, -0.000000, -0.000000 )     1.62273789
  WF centre and spread    2  (  0.000000,  0.000000,  0.000000 )     2.95868195
  WF centre and spread    3  ( -0.000000,  0.000000, -0.000000 )     2.95868190
  WF centre and spread    4  (  0.000000,  0.000000,  0.000000 )     2.95868186
  Sum of centres and spreads ( -0.000000,  0.000000,  0.000000 )    10.49878359
 
     55    -0.533E-14     0.0000003230       10.4987835945       0.26  <-- CONV
        O_D=      0.0000000 O_OD=      3.2984004 O_TOT=     10.4987836 <-- SPRD
 Delta: O_D= -0.1297261E-18 O_OD= -0.5329071E-14 O_TOT= -0.5329071E-14 <-- DLTA
 ------------------------------------------------------------------------------
 Cycle:     56
  WF centre and spread    1  (  0.000000, -0.000000, -0.000000 )     1.62273789
  WF centre and spread    2  (  0.000000,  0.000000,  0.000000 )     2.95868195
  WF centre and spread    3  ( -0.000000,  0.000000, -0.000000 )     2.95868190
  WF centre and spread    4  (  0.000000,  0.000000,  0.000000 )     2.95868186
  Sum of centres and spreads ( -0.000000,  0.000000,  0.000000 )    10.49878359
 
     56    -0.355E-14     0.0000003212       10.4987835945       0.27  <-- CONV
        O_D=      0.0000000 O_OD=      3.2984004 O_TOT=     10.4987836 <-- SPRD
 Delta: O_D= -0.1920206E-19 O_OD= -0.3552714E-14 O_TOT= -0.3552714E-14 <-- DLTA
 ------------------------------------------------------------------------------
 Cycle:     57
  WF centre and spread    1  (  0.000000, -0.000000, -0.000000 )     1.62273789
  WF centre and spread    2  (  0.000000,  0.000000,  0.000000 )     2.95868195
  WF centre and spread    3  ( -0.000000,  0.000000, -0.000000 )     2.95868190
  WF centre and spread    4  (  0.000000,  0.000000,  0.000000 )     2.95868186
  Sum of centres and spreads ( -0.000000,  0.000000,  0.000000 )    10.49878359
 
     57     0.213E-13     0.0000003209       10.4987835945       0.27  <-- CONV
        O_D=      0.0000000 O_OD=      3.2984004 O_TOT=     10.4987836 <-- SPRD
 Delta: O_D= -0.3440228E-19 O_OD=  0.2087219E-13 O_TOT=  0.2131628E-13 <-- DLTA
 ------------------------------------------------------------------------------
 Cycle:     58
  WF centre and spread    1  (  0.000000, -0.000000, -0.000000 )     1.62273789
  WF centre and spread    2  (  0.000000,  0.000000,  0.000000 )     2.95868195
  WF centre and spread    3  ( -0.000000,  0.000000, -0.000000 )     2.95868190
  WF centre and spread    4  (  0.000000,  0.000000,  0.000000 )     2.95868187
  Sum of centres and spreads ( -0.000000,  0.000000,  0.000000 )    10.49878359
 
     58    -0.107E-13     0.0000003205       10.4987835945       0.28  <-- CONV
        O_D=      0.0000000 O_OD=      3.2984004 O_TOT=     10.4987836 <-- SPRD
 Delta: O_D= -0.4808251E-18 O_OD= -0.1110223E-13 O_TOT= -0.1065814E-13 <-- DLTA
 ------------------------------------------------------------------------------
 Cycle:     59
  WF centre and spread    1  (  0.000000, -0.000000, -0.000000 )     1.62273789
  WF centre and spread    2  (  0.000000,  0.000000,  0.000000 )     2.95868195
  WF centre and spread    3  ( -0.000000,  0.000000, -0.000000 )     2.95868190
  WF centre and spread    4  (  0.000000,  0.000000,  0.000000 )     2.95868187
  Sum of centres and spreads ( -0.000000,  0.000000,  0.000000 )    10.49878359
 
     59    -0.355E-14     0.0000003135       10.4987835945       0.28  <-- CONV
        O_D=      0.0000000 O_OD=      3.2984004 O_TOT=     10.4987836 <-- SPRD
 Delta: O_D= -0.2684462E-18 O_OD= -0.3552714E-14 O_TOT= -0.3552714E-14 <-- DLTA
 ------------------------------------------------------------------------------
 Cycle:     60
  WF centre and spread    1  (  0.000000, -0.000000, -0.000000 )     1.62273788
  WF centre and spread    2  (  0.000000,  0.000000,  0.000000 )     2.95868195
  WF centre and spread    3  ( -0.000000,  0.000000, -0.000000 )     2.95868190
  WF centre and spread    4  (  0.000000,  0.000000,  0.000000 )     2.95868187
  Sum of centres and spreads ( -0.000000,  0.000000,  0.000000 )    10.49878359
 
     60    -0.142E-13     0.0000003094       10.4987835945       0.28  <-- CONV
        O_D=      0.0000000 O_OD=      3.2984004 O_TOT=     10.4987836 <-- SPRD
 Delta: O_D= -0.5730006E-18 O_OD= -0.1465494E-13 O_TOT= -0.1421085E-13 <-- DLTA
 ------------------------------------------------------------------------------
 Cycle:     61
  WF centre and spread    1  (  0.000000, -0.000000, -0.000000 )     1.62273788
  WF centre and spread    2  (  0.000000,  0.000000,  0.000000 )     2.95868195
  WF centre and spread    3  ( -0.000000,  0.000000, -0.000000 )     2.95868190
  WF centre and spread    4  (  0.000000,  0.000000,  0.000000 )     2.95868187
  Sum of centres and spreads ( -0.000000,  0.000000,  0.000000 )    10.49878359
 
     61     0.711E-14     0.0000002998       10.4987835945       0.29  <-- CONV
        O_D=      0.0000000 O_OD=      3.2984004 O_TOT=     10.4987836 <-- SPRD
 Delta: O_D= -0.2335759E-20 O_OD=  0.7993606E-14 O_TOT=  0.7105427E-14 <-- DLTA
 ------------------------------------------------------------------------------
 Cycle:     62
  WF centre and spread    1  (  0.000000, -0.000000, -0.000000 )     1.62273788
  WF centre and spread    2  (  0.000000,  0.000000,  0.000000 )     2.95868195
  WF centre and spread    3  ( -0.000000,  0.000000, -0.000000 )     2.95868190
  WF centre and spread    4  (  0.000000,  0.000000,  0.000000 )     2.95868187
  Sum of centres and spreads ( -0.000000,  0.000000,  0.000000 )    10.49878359
 
     62    -0.142E-13     0.0000002998       10.4987835945       0.29  <-- CONV
        O_D=      0.0000000 O_OD=      3.2984004 O_TOT=     10.4987836 <-- SPRD
 Delta: O_D= -0.1309810E-18 O_OD= -0.1465494E-13 O_TOT= -0.1421085E-13 <-- DLTA
 ------------------------------------------------------------------------------
 Cycle:     63
  WF centre and spread    1  (  0.000000, -0.000000, -0.000000 )     1.62273788
  WF centre and spread    2  (  0.000000,  0.000000,  0.000000 )     2.95868195
  WF centre and spread    3  ( -0.000000,  0.000000, -0.000000 )     2.95868190
  WF centre and spread    4  (  0.000000,  0.000000,  0.000000 )     2.95868187
  Sum of centres and spreads ( -0.000000,  0.000000,  0.000000 )    10.49878359
 
     63     0.373E-13     0.0000002970       10.4987835945       0.30  <-- CONV
        O_D=      0.0000000 O_OD=      3.2984004 O_TOT=     10.4987836 <-- SPRD
 Delta: O_D= -0.2758512E-19 O_OD=  0.3774758E-13 O_TOT=  0.3730349E-13 <-- DLTA
 ------------------------------------------------------------------------------
 Cycle:     64
  WF centre and spread    1  (  0.000000, -0.000000, -0.000000 )     1.62273788
  WF centre and spread    2  (  0.000000,  0.000000,  0.000000 )     2.95868195
  WF centre and spread    3  ( -0.000000,  0.000000, -0.000000 )     2.95868190
  WF centre and spread    4  (  0.000000,  0.000000,  0.000000 )     2.95868187
  Sum of centres and spreads ( -0.000000,  0.000000,  0.000000 )    10.49878359
 
     64    -0.533E-13     0.0000002965       10.4987835945       0.30  <-- CONV
        O_D=      0.0000000 O_OD=      3.2984004 O_TOT=     10.4987836 <-- SPRD
 Delta: O_D= -0.2745678E-18 O_OD= -0.5373479E-13 O_TOT= -0.5329071E-13 <-- DLTA
 ------------------------------------------------------------------------------
 Cycle:     65
  WF centre and spread    1  (  0.000000, -0.000000, -0.000000 )     1.62273788
  WF centre and spread    2  (  0.000000,  0.000000,  0.000000 )     2.95868195
  WF centre and spread    3  ( -0.000000,  0.000000, -0.000000 )     2.95868190
  WF centre and spread    4  (  0.000000,  0.000000,  0.000000 )     2.95868187
  Sum of centres and spreads ( -0.000000,  0.000000,  0.000000 )    10.49878359
 
     65    -0.533E-14     0.0000002904       10.4987835945       0.31  <-- CONV
        O_D=      0.0000000 O_OD=      3.2984004 O_TOT=     10.4987836 <-- SPRD
 Delta: O_D= -0.9937405E-19 O_OD= -0.3996803E-14 O_TOT= -0.5329071E-14 <-- DLTA
 ------------------------------------------------------------------------------
 Cycle:     66
  WF centre and spread    1  (  0.000000, -0.000000, -0.000000 )     1.62273788
  WF centre and spread    2  (  0.000000,  0.000000,  0.000000 )     2.95868195
  WF centre and spread    3  ( -0.000000,  0.000000, -0.000000 )     2.95868190
  WF centre and spread    4  (  0.000000,  0.000000,  0.000000 )     2.95868187
  Sum of centres and spreads ( -0.000000,  0.000000,  0.000000 )    10.49878359
 
     66     0.338E-13     0.0000002881       10.4987835945       0.31  <-- CONV
        O_D=      0.0000000 O_OD=      3.2984004 O_TOT=     10.4987836 <-- SPRD
 Delta: O_D= -0.5796587E-19 O_OD=  0.3330669E-13 O_TOT=  0.3375078E-13 <-- DLTA
 ------------------------------------------------------------------------------
 Cycle:     67
  WF centre and spread    1  (  0.000000, -0.000000, -0.000000 )     1.62273788
  WF centre and spread    2  (  0.000000,  0.000000,  0.000000 )     2.95868195
  WF centre and spread    3  ( -0.000000,  0.000000, -0.000000 )     2.95868190
  WF centre and spread    4  (  0.000000,  0.000000,  0.000000 )     2.95868187
  Sum of centres and spreads ( -0.000000,  0.000000,  0.000000 )    10.49878359
 
     67    -0.338E-13     0.0000002867       10.4987835945       0.32  <-- CONV
        O_D=      0.0000000 O_OD=      3.2984004 O_TOT=     10.4987836 <-- SPRD
 Delta: O_D= -0.5455440E-19 O_OD= -0.3463896E-13 O_TOT= -0.3375078E-13 <-- DLTA
 ------------------------------------------------------------------------------
 Cycle:     68
  WF centre and spread    1  (  0.000000, -0.000000, -0.000000 )     1.62273788
  WF centre and spread    2  (  0.000000,  0.000000,  0.000000 )     2.95868195
  WF centre and spread    3  ( -0.000000,  0.000000, -0.000000 )     2.95868190
  WF centre and spread    4  (  0.000000,  0.000000,  0.000000 )     2.95868187
  Sum of centres and spreads ( -0.000000,  0.000000,  0.000000 )    10.49878359
 
     68     0.302E-13     0.0000002852       10.4987835945       0.32  <-- CONV
        O_D=      0.0000000 O_OD=      3.2984004 O_TOT=     10.4987836 <-- SPRD
 Delta: O_D= -0.1386899E-19 O_OD=  0.3108624E-13 O_TOT=  0.3019807E-13 <-- DLTA
 ------------------------------------------------------------------------------
 Cycle:     69
  WF centre and spread    1  (  0.000000, -0.000000, -0.000000 )     1.62273788
  WF centre and spread    2  (  0.000000,  0.000000,  0.000000 )     2.95868195
  WF centre and spread    3  ( -0.000000,  0.000000, -0.000000 )     2.95868190
  WF centre and spread    4  (  0.000000,  0.000000,  0.000000 )     2.95868187
  Sum of centres and spreads ( -0.000000,  0.000000,  0.000000 )    10.49878359
 
     69    -0.533E-14     0.0000002848       10.4987835945       0.32  <-- CONV
        O_D=      0.0000000 O_OD=      3.2984004 O_TOT=     10.4987836 <-- SPRD
 Delta: O_D= -0.1541796E-18 O_OD= -0.5773160E-14 O_TOT= -0.5329071E-14 <-- DLTA
 ------------------------------------------------------------------------------
 Cycle:     70
  WF centre and spread    1  (  0.000000, -0.000000, -0.000000 )     1.62273788
  WF centre and spread    2  (  0.000000,  0.000000,  0.000000 )     2.95868195
  WF centre and spread    3  ( -0.000000,  0.000000, -0.000000 )     2.95868190
  WF centre and spread    4  (  0.000000,  0.000000,  0.000000 )     2.95868187
  Sum of centres and spreads ( -0.000000,  0.000000,  0.000000 )    10.49878359
 
     70    -0.266E-13     0.0000002806       10.4987835945       0.33  <-- CONV
        O_D=      0.0000000 O_OD=      3.2984004 O_TOT=     10.4987836 <-- SPRD
 Delta: O_D= -0.1855131E-18 O_OD= -0.2620126E-13 O_TOT= -0.2664535E-13 <-- DLTA
 ------------------------------------------------------------------------------
 Cycle:     71
  WF centre and spread    1  (  0.000000, -0.000000, -0.000000 )     1.62273788
  WF centre and spread    2  (  0.000000,  0.000000,  0.000000 )     2.95868195
  WF centre and spread    3  ( -0.000000,  0.000000, -0.000000 )     2.95868190
  WF centre and spread    4  (  0.000000,  0.000000,  0.000000 )     2.95868187
  Sum of centres and spreads ( -0.000000,  0.000000,  0.000000 )    10.49878359
 
     71    -0.888E-14     0.0000002751       10.4987835945       0.33  <-- CONV
        O_D=      0.0000000 O_OD=      3.2984004 O_TOT=     10.4987836 <-- SPRD
 Delta: O_D= -0.2021088E-18 O_OD= -0.9769963E-14 O_TOT= -0.8881784E-14 <-- DLTA
 ------------------------------------------------------------------------------
 Cycle:     72
  WF centre and spread    1  (  0.000000, -0.000000, -0.000000 )     1.62273788
  WF centre and spread    2  (  0.000000,  0.000000,  0.000000 )     2.95868195
  WF centre and spread    3  ( -0.000000,  0.000000, -0.000000 )     2.95868190
  WF centre and spread    4  (  0.000000,  0.000000,  0.000000 )     2.95868187
  Sum of centres and spreads ( -0.000000,  0.000000,  0.000000 )    10.49878359
 
     72    -0.107E-13     0.0000002685       10.4987835945       0.33  <-- CONV
        O_D=      0.0000000 O_OD=      3.2984004 O_TOT=     10.4987836 <-- SPRD
 Delta: O_D= -0.2038596E-18 O_OD= -0.1021405E-13 O_TOT= -0.1065814E-13 <-- DLTA
 ------------------------------------------------------------------------------
 Cycle:     73
  WF centre and spread    1  (  0.000000, -0.000000, -0.000000 )     1.62273788
  WF centre and spread    2  (  0.000000,  0.000000,  0.000000 )     2.95868195
  WF centre and spread    3  ( -0.000000,  0.000000, -0.000000 )     2.95868190
  WF centre and spread    4  (  0.000000,  0.000000,  0.000000 )     2.95868187
  Sum of centres and spreads ( -0.000000,  0.000000,  0.000000 )    10.49878359
 
     73    -0.213E-13     0.0000002610       10.4987835945       0.34  <-- CONV
        O_D=      0.0000000 O_OD=      3.2984004 O_TOT=     10.4987836 <-- SPRD
 Delta: O_D= -0.2585119E-19 O_OD= -0.2042810E-13 O_TOT= -0.2131628E-13 <-- DLTA
 ------------------------------------------------------------------------------
 Cycle:     74
  WF centre and spread    1  (  0.000000, -0.000000, -0.000000 )     1.62273788
  WF centre and spread    2  (  0.000000,  0.000000,  0.000000 )     2.95868195
  WF centre and spread    3  ( -0.000000,  0.000000, -0.000000 )     2.95868190
  WF centre and spread    4  (  0.000000,  0.000000,  0.000000 )     2.95868187
  Sum of centres and spreads ( -0.000000,  0.000000,  0.000000 )    10.49878359
 
     74     0.497E-13     0.0000002598       10.4987835945       0.34  <-- CONV
        O_D=      0.0000000 O_OD=      3.2984004 O_TOT=     10.4987836 <-- SPRD
 Delta: O_D= -0.2038368E-20 O_OD=  0.4973799E-13 O_TOT=  0.4973799E-13 <-- DLTA
 ------------------------------------------------------------------------------
 Cycle:     75
  WF centre and spread    1  (  0.000000, -0.000000, -0.000000 )     1.62273788
  WF centre and spread    2  (  0.000000,  0.000000,  0.000000 )     2.95868195
  WF centre and spread    3  ( -0.000000,  0.000000, -0.000000 )     2.95868190
  WF centre and spread    4  (  0.000000,  0.000000,  0.000000 )     2.95868187
  Sum of centres and spreads ( -0.000000,  0.000000,  0.000000 )    10.49878359
 
     75    -0.266E-13     0.0000002597       10.4987835945       0.34  <-- CONV
        O_D=      0.0000000 O_OD=      3.2984004 O_TOT=     10.4987836 <-- SPRD
 Delta: O_D= -0.7357504E-19 O_OD= -0.2797762E-13 O_TOT= -0.2664535E-13 <-- DLTA
 ------------------------------------------------------------------------------
 Cycle:     76
  WF centre and spread    1  (  0.000000, -0.000000, -0.000000 )     1.62273788
  WF centre and spread    2  (  0.000000,  0.000000,  0.000000 )     2.95868195
  WF centre and spread    3  ( -0.000000,  0.000000, -0.000000 )     2.95868190
  WF centre and spread    4  (  0.000000,  0.000000,  0.000000 )     2.95868187
  Sum of centres and spreads ( -0.000000,  0.000000,  0.000000 )    10.49878359
 
     76    -0.338E-13     0.0000002561       10.4987835945       0.35  <-- CONV
        O_D=      0.0000000 O_OD=      3.2984004 O_TOT=     10.4987836 <-- SPRD
 Delta: O_D= -0.1845145E-19 O_OD= -0.3419487E-13 O_TOT= -0.3375078E-13 <-- DLTA
 ------------------------------------------------------------------------------
 Cycle:     77
  WF centre and spread    1  (  0.000000, -0.000000, -0.000000 )     1.62273788
  WF centre and spread    2  (  0.000000,  0.000000,  0.000000 )     2.95868195
  WF centre and spread    3  ( -0.000000,  0.000000, -0.000000 )     2.95868190
  WF centre and spread    4  (  0.000000,  0.000000,  0.000000 )     2.95868187
  Sum of centres and spreads ( -0.000000,  0.000000,  0.000000 )    10.49878359
 
     77     0.142E-13     0.0000002551       10.4987835945       0.36  <-- CONV
        O_D=      0.0000000 O_OD=      3.2984004 O_TOT=     10.4987836 <-- SPRD
 Delta: O_D= -0.8022250E-20 O_OD=  0.1598721E-13 O_TOT=  0.1421085E-13 <-- DLTA
 ------------------------------------------------------------------------------
 Cycle:     78
  WF centre and spread    1  (  0.000000, -0.000000, -0.000000 )     1.62273788
  WF centre and spread    2  (  0.000000,  0.000000,  0.000000 )     2.95868195
  WF centre and spread    3  ( -0.000000,  0.000000, -0.000000 )     2.95868190
  WF centre and spread    4  (  0.000000,  0.000000,  0.000000 )     2.95868187
  Sum of centres and spreads ( -0.000000,  0.000000,  0.000000 )    10.49878359
 
     78    -0.213E-13     0.0000002547       10.4987835945       0.36  <-- CONV
        O_D=      0.0000000 O_OD=      3.2984004 O_TOT=     10.4987836 <-- SPRD
 Delta: O_D= -0.1255530E-18 O_OD= -0.2220446E-13 O_TOT= -0.2131628E-13 <-- DLTA
 ------------------------------------------------------------------------------
 Cycle:     79
  WF centre and spread    1  (  0.000000, -0.000000, -0.000000 )     1.62273788
  WF centre and spread    2  (  0.000000,  0.000000,  0.000000 )     2.95868195
  WF centre and spread    3  ( -0.000000,  0.000000, -0.000000 )     2.95868190
  WF centre and spread    4  (  0.000000,  0.000000,  0.000000 )     2.95868187
  Sum of centres and spreads ( -0.000000,  0.000000,  0.000000 )    10.49878359
 
     79     0.497E-13     0.0000002478       10.4987835945       0.36  <-- CONV
        O_D=      0.0000000 O_OD=      3.2984004 O_TOT=     10.4987836 <-- SPRD
 Delta: O_D= -0.2394618E-21 O_OD=  0.4929390E-13 O_TOT=  0.4973799E-13 <-- DLTA
 ------------------------------------------------------------------------------
 Cycle:     80
  WF centre and spread    1  (  0.000000, -0.000000, -0.000000 )     1.62273788
  WF centre and spread    2  (  0.000000,  0.000000,  0.000000 )     2.95868195
  WF centre and spread    3  ( -0.000000,  0.000000, -0.000000 )     2.95868190
  WF centre and spread    4  (  0.000000,  0.000000,  0.000000 )     2.95868187
  Sum of centres and spreads ( -0.000000,  0.000000,  0.000000 )    10.49878359
 
     80    -0.107E-13     0.0000002477       10.4987835945       0.37  <-- CONV
        O_D=      0.0000000 O_OD=      3.2984004 O_TOT=     10.4987836 <-- SPRD
 Delta: O_D= -0.3398258E-19 O_OD= -0.1065814E-13 O_TOT= -0.1065814E-13 <-- DLTA
 ------------------------------------------------------------------------------
 Cycle:     81
  WF centre and spread    1  (  0.000000, -0.000000, -0.000000 )     1.62273788
  WF centre and spread    2  (  0.000000,  0.000000,  0.000000 )     2.95868195
  WF centre and spread    3  ( -0.000000,  0.000000, -0.000000 )     2.95868190
  WF centre and spread    4  (  0.000000,  0.000000,  0.000000 )     2.95868187
  Sum of centres and spreads ( -0.000000,  0.000000,  0.000000 )    10.49878359
 
     81    -0.213E-13     0.0000002455       10.4987835945       0.37  <-- CONV
        O_D=      0.0000000 O_OD=      3.2984004 O_TOT=     10.4987836 <-- SPRD
 Delta: O_D= -0.4766351E-19 O_OD= -0.2131628E-13 O_TOT= -0.2131628E-13 <-- DLTA
 ------------------------------------------------------------------------------
 Cycle:     82
  WF centre and spread    1  (  0.000000, -0.000000, -0.000000 )     1.62273788
  WF centre and spread    2  (  0.000000,  0.000000,  0.000000 )     2.95868195
  WF centre and spread    3  ( -0.000000,  0.000000, -0.000000 )     2.95868190
  WF centre and spread    4  (  0.000000,  0.000000,  0.000000 )     2.95868187
  Sum of centres and spreads ( -0.000000,  0.000000,  0.000000 )    10.49878359
 
     82     0.711E-14     0.0000002422       10.4987835945       0.38  <-- CONV
        O_D=      0.0000000 O_OD=      3.2984004 O_TOT=     10.4987836 <-- SPRD
 Delta: O_D= -0.2212367E-19 O_OD=  0.8437695E-14 O_TOT=  0.7105427E-14 <-- DLTA
 ------------------------------------------------------------------------------
 Cycle:     83
  WF centre and spread    1  (  0.000000, -0.000000, -0.000000 )     1.62273788
  WF centre and spread    2  (  0.000000,  0.000000,  0.000000 )     2.95868195
  WF centre and spread    3  ( -0.000000,  0.000000, -0.000000 )     2.95868190
  WF centre and spread    4  (  0.000000,  0.000000,  0.000000 )     2.95868187
  Sum of centres and spreads ( -0.000000,  0.000000,  0.000000 )    10.49878359
 
     83    -0.320E-13     0.0000002407       10.4987835945       0.38  <-- CONV
        O_D=      0.0000000 O_OD=      3.2984004 O_TOT=     10.4987836 <-- SPRD
 Delta: O_D= -0.6803240E-19 O_OD= -0.3375078E-13 O_TOT= -0.3197442E-13 <-- DLTA
 ------------------------------------------------------------------------------
 Cycle:     84
  WF centre and spread    1  (  0.000000, -0.000000, -0.000000 )     1.62273788
  WF centre and spread    2  (  0.000000,  0.000000,  0.000000 )     2.95868195
  WF centre and spread    3  ( -0.000000,  0.000000, -0.000000 )     2.95868190
  WF centre and spread    4  (  0.000000,  0.000000,  0.000000 )     2.95868187
  Sum of centres and spreads ( -0.000000,  0.000000,  0.000000 )    10.49878359
 
     84     0.391E-13     0.0000002354       10.4987835945       0.38  <-- CONV
        O_D=      0.0000000 O_OD=      3.2984004 O_TOT=     10.4987836 <-- SPRD
 Delta: O_D= -0.1859619E-19 O_OD=  0.3907985E-13 O_TOT=  0.3907985E-13 <-- DLTA
 ------------------------------------------------------------------------------
 Cycle:     85
  WF centre and spread    1  (  0.000000, -0.000000, -0.000000 )     1.62273788
  WF centre and spread    2  (  0.000000,  0.000000,  0.000000 )     2.95868195
  WF centre and spread    3  ( -0.000000,  0.000000, -0.000000 )     2.95868190
  WF centre and spread    4  (  0.000000,  0.000000,  0.000000 )     2.95868187
[...]
 Delta: O_D= -0.6787962E-20 O_OD= -0.1909584E-13 O_TOT= -0.1953993E-13 <-- DLTA
 ------------------------------------------------------------------------------
 Cycle:    277
  WF centre and spread    1  (  0.000000, -0.000000, -0.000000 )     1.62273785
  WF centre and spread    2  (  0.000000,  0.000000,  0.000000 )     2.95868196
  WF centre and spread    3  ( -0.000000,  0.000000, -0.000000 )     2.95868191
  WF centre and spread    4  (  0.000000,  0.000000,  0.000000 )     2.95868188
  Sum of centres and spreads ( -0.000000,  0.000000,  0.000000 )    10.49878359
 
    277     0.178E-14     0.0000000886       10.4987835945       1.22  <-- CONV
        O_D=      0.0000000 O_OD=      3.2984004 O_TOT=     10.4987836 <-- SPRD
 Delta: O_D= -0.1135023E-20 O_OD=  0.8881784E-15 O_TOT=  0.1776357E-14 <-- DLTA
 ------------------------------------------------------------------------------
 Cycle:    278
  WF centre and spread    1  (  0.000000, -0.000000, -0.000000 )     1.62273785
  WF centre and spread    2  (  0.000000,  0.000000,  0.000000 )     2.95868196
  WF centre and spread    3  ( -0.000000,  0.000000, -0.000000 )     2.95868191
  WF centre and spread    4  (  0.000000,  0.000000,  0.000000 )     2.95868188
  Sum of centres and spreads ( -0.000000,  0.000000,  0.000000 )    10.49878359
 
    278    -0.711E-14     0.0000000884       10.4987835945       1.22  <-- CONV
        O_D=      0.0000000 O_OD=      3.2984004 O_TOT=     10.4987836 <-- SPRD
 Delta: O_D= -0.5456672E-22 O_OD= -0.5773160E-14 O_TOT= -0.7105427E-14 <-- DLTA
 ------------------------------------------------------------------------------
 Cycle:    279
  WF centre and spread    1  (  0.000000, -0.000000, -0.000000 )     1.62273785
  WF centre and spread    2  (  0.000000,  0.000000,  0.000000 )     2.95868196
  WF centre and spread    3  ( -0.000000,  0.000000, -0.000000 )     2.95868191
  WF centre and spread    4  (  0.000000,  0.000000,  0.000000 )     2.95868188
  Sum of centres and spreads ( -0.000000,  0.000000,  0.000000 )    10.49878359
 
    279    -0.124E-13     0.0000000884       10.4987835945       1.23  <-- CONV
        O_D=      0.0000000 O_OD=      3.2984004 O_TOT=     10.4987836 <-- SPRD
 Delta: O_D= -0.3401387E-20 O_OD= -0.1376677E-13 O_TOT= -0.1243450E-13 <-- DLTA
 ------------------------------------------------------------------------------
 Cycle:    280
  WF centre and spread    1  (  0.000000, -0.000000, -0.000000 )     1.62273785
  WF centre and spread    2  (  0.000000,  0.000000,  0.000000 )     2.95868196
  WF centre and spread    3  ( -0.000000,  0.000000, -0.000000 )     2.95868191
  WF centre and spread    4  (  0.000000,  0.000000,  0.000000 )     2.95868188
  Sum of centres and spreads ( -0.000000,  0.000000,  0.000000 )    10.49878359
 
    280     0.284E-13     0.0000000879       10.4987835945       1.23  <-- CONV
        O_D=      0.0000000 O_OD=      3.2984004 O_TOT=     10.4987836 <-- SPRD
 Delta: O_D= -0.6434817E-21 O_OD=  0.2930989E-13 O_TOT=  0.2842171E-13 <-- DLTA
 ------------------------------------------------------------------------------
 Cycle:    281
  WF centre and spread    1  (  0.000000, -0.000000, -0.000000 )     1.62273785
  WF centre and spread    2  (  0.000000,  0.000000,  0.000000 )     2.95868196
  WF centre and spread    3  ( -0.000000,  0.000000, -0.000000 )     2.95868191
  WF centre and spread    4  (  0.000000,  0.000000,  0.000000 )     2.95868188
  Sum of centres and spreads ( -0.000000,  0.000000,  0.000000 )    10.49878359
 
    281     0.000E+00     0.0000000878       10.4987835945       1.24  <-- CONV
        O_D=      0.0000000 O_OD=      3.2984004 O_TOT=     10.4987836 <-- SPRD
 Delta: O_D= -0.9368665E-21 O_OD= -0.8881784E-15 O_TOT=  0.0000000E+00 <-- DLTA
 ------------------------------------------------------------------------------
 Cycle:    282
  WF centre and spread    1  (  0.000000, -0.000000, -0.000000 )     1.62273785
  WF centre and spread    2  (  0.000000,  0.000000,  0.000000 )     2.95868196
  WF centre and spread    3  ( -0.000000,  0.000000, -0.000000 )     2.95868191
  WF centre and spread    4  (  0.000000,  0.000000,  0.000000 )     2.95868188
  Sum of centres and spreads ( -0.000000,  0.000000,  0.000000 )    10.49878359
 
    282    -0.338E-13     0.0000000876       10.4987835945       1.24  <-- CONV
        O_D=      0.0000000 O_OD=      3.2984004 O_TOT=     10.4987836 <-- SPRD
 Delta: O_D= -0.6738057E-20 O_OD= -0.3241851E-13 O_TOT= -0.3375078E-13 <-- DLTA
 ------------------------------------------------------------------------------
 Cycle:    283
  WF centre and spread    1  (  0.000000, -0.000000, -0.000000 )     1.62273785
  WF centre and spread    2  (  0.000000,  0.000000,  0.000000 )     2.95868196
  WF centre and spread    3  ( -0.000000,  0.000000, -0.000000 )     2.95868191
  WF centre and spread    4  (  0.000000,  0.000000,  0.000000 )     2.95868188
  Sum of centres and spreads ( -0.000000,  0.000000,  0.000000 )    10.49878359
 
    283    -0.107E-13     0.0000000866       10.4987835945       1.24  <-- CONV
        O_D=      0.0000000 O_OD=      3.2984004 O_TOT=     10.4987836 <-- SPRD
 Delta: O_D= -0.2613521E-22 O_OD= -0.1243450E-13 O_TOT= -0.1065814E-13 <-- DLTA
 ------------------------------------------------------------------------------
 Cycle:    284
  WF centre and spread    1  (  0.000000, -0.000000, -0.000000 )     1.62273785
  WF centre and spread    2  (  0.000000,  0.000000,  0.000000 )     2.95868196
  WF centre and spread    3  ( -0.000000,  0.000000, -0.000000 )     2.95868191
  WF centre and spread    4  (  0.000000,  0.000000,  0.000000 )     2.95868188
  Sum of centres and spreads ( -0.000000,  0.000000,  0.000000 )    10.49878359
 
    284     0.284E-13     0.0000000866       10.4987835945       1.25  <-- CONV
        O_D=      0.0000000 O_OD=      3.2984004 O_TOT=     10.4987836 <-- SPRD
 Delta: O_D= -0.1390510E-22 O_OD=  0.2842171E-13 O_TOT=  0.2842171E-13 <-- DLTA
 ------------------------------------------------------------------------------
 Cycle:    285
  WF centre and spread    1  (  0.000000, -0.000000, -0.000000 )     1.62273785
  WF centre and spread    2  (  0.000000,  0.000000,  0.000000 )     2.95868196
  WF centre and spread    3  ( -0.000000,  0.000000, -0.000000 )     2.95868191
  WF centre and spread    4  (  0.000000,  0.000000,  0.000000 )     2.95868188
  Sum of centres and spreads ( -0.000000,  0.000000,  0.000000 )    10.49878359
 
    285     0.711E-14     0.0000000866       10.4987835945       1.26  <-- CONV
        O_D=      0.0000000 O_OD=      3.2984004 O_TOT=     10.4987836 <-- SPRD
 Delta: O_D= -0.1155815E-21 O_OD=  0.7993606E-14 O_TOT=  0.7105427E-14 <-- DLTA
 ------------------------------------------------------------------------------
 Cycle:    286
  WF centre and spread    1  (  0.000000, -0.000000, -0.000000 )     1.62273785
  WF centre and spread    2  (  0.000000,  0.000000,  0.000000 )     2.95868196
  WF centre and spread    3  ( -0.000000,  0.000000, -0.000000 )     2.95868191
  WF centre and spread    4  (  0.000000,  0.000000,  0.000000 )     2.95868188
  Sum of centres and spreads ( -0.000000,  0.000000,  0.000000 )    10.49878359
 
    286    -0.711E-14     0.0000000866       10.4987835945       1.26  <-- CONV
        O_D=      0.0000000 O_OD=      3.2984004 O_TOT=     10.4987836 <-- SPRD
 Delta: O_D= -0.4545033E-20 O_OD= -0.6217249E-14 O_TOT= -0.7105427E-14 <-- DLTA
 ------------------------------------------------------------------------------
 Cycle:    287
  WF centre and spread    1  (  0.000000, -0.000000, -0.000000 )     1.62273785
  WF centre and spread    2  (  0.000000,  0.000000,  0.000000 )     2.95868196
  WF centre and spread    3  ( -0.000000,  0.000000, -0.000000 )     2.95868191
  WF centre and spread    4  (  0.000000,  0.000000,  0.000000 )     2.95868188
  Sum of centres and spreads ( -0.000000,  0.000000,  0.000000 )    10.49878359
 
    287    -0.711E-14     0.0000000859       10.4987835945       1.26  <-- CONV
        O_D=      0.0000000 O_OD=      3.2984004 O_TOT=     10.4987836 <-- SPRD
 Delta: O_D= -0.5605130E-20 O_OD= -0.7105427E-14 O_TOT= -0.7105427E-14 <-- DLTA
 ------------------------------------------------------------------------------
 Cycle:    288
  WF centre and spread    1  (  0.000000, -0.000000, -0.000000 )     1.62273785
  WF centre and spread    2  (  0.000000,  0.000000,  0.000000 )     2.95868196
  WF centre and spread    3  ( -0.000000,  0.000000, -0.000000 )     2.95868191
  WF centre and spread    4  (  0.000000,  0.000000,  0.000000 )     2.95868188
  Sum of centres and spreads ( -0.000000,  0.000000,  0.000000 )    10.49878359
 
    288    -0.711E-14     0.0000000850       10.4987835945       1.26  <-- CONV
        O_D=      0.0000000 O_OD=      3.2984004 O_TOT=     10.4987836 <-- SPRD
 Delta: O_D= -0.6631596E-20 O_OD= -0.7993606E-14 O_TOT= -0.7105427E-14 <-- DLTA
 ------------------------------------------------------------------------------
 Cycle:    289
  WF centre and spread    1  (  0.000000, -0.000000, -0.000000 )     1.62273785
  WF centre and spread    2  (  0.000000,  0.000000,  0.000000 )     2.95868196
  WF centre and spread    3  ( -0.000000,  0.000000, -0.000000 )     2.95868191
  WF centre and spread    4  (  0.000000,  0.000000,  0.000000 )     2.95868188
  Sum of centres and spreads ( -0.000000,  0.000000,  0.000000 )    10.49878359
 
    289     0.124E-13     0.0000000841       10.4987835945       1.27  <-- CONV
        O_D=      0.0000000 O_OD=      3.2984004 O_TOT=     10.4987836 <-- SPRD
 Delta: O_D= -0.1119389E-22 O_OD=  0.1243450E-13 O_TOT=  0.1243450E-13 <-- DLTA
 ------------------------------------------------------------------------------
 Cycle:    290
  WF centre and spread    1  (  0.000000, -0.000000, -0.000000 )     1.62273785
  WF centre and spread    2  (  0.000000,  0.000000,  0.000000 )     2.95868196
  WF centre and spread    3  ( -0.000000,  0.000000, -0.000000 )     2.95868191
  WF centre and spread    4  (  0.000000,  0.000000,  0.000000 )     2.95868188
  Sum of centres and spreads ( -0.000000,  0.000000,  0.000000 )    10.49878359
 
    290     0.231E-13     0.0000000841       10.4987835945       1.28  <-- CONV
        O_D=      0.0000000 O_OD=      3.2984004 O_TOT=     10.4987836 <-- SPRD
 Delta: O_D= -0.2261149E-22 O_OD=  0.2353673E-13 O_TOT=  0.2309264E-13 <-- DLTA
 ------------------------------------------------------------------------------
 Cycle:    291
  WF centre and spread    1  (  0.000000, -0.000000, -0.000000 )     1.62273785
  WF centre and spread    2  (  0.000000,  0.000000,  0.000000 )     2.95868196
  WF centre and spread    3  ( -0.000000,  0.000000, -0.000000 )     2.95868191
  WF centre and spread    4  (  0.000000,  0.000000,  0.000000 )     2.95868188
  Sum of centres and spreads ( -0.000000,  0.000000,  0.000000 )    10.49878359
 
    291    -0.107E-13     0.0000000841       10.4987835945       1.28  <-- CONV
        O_D=      0.0000000 O_OD=      3.2984004 O_TOT=     10.4987836 <-- SPRD
 Delta: O_D= -0.3412023E-20 O_OD= -0.1110223E-13 O_TOT= -0.1065814E-13 <-- DLTA
 ------------------------------------------------------------------------------
 Cycle:    292
  WF centre and spread    1  (  0.000000, -0.000000, -0.000000 )     1.62273785
  WF centre and spread    2  (  0.000000,  0.000000,  0.000000 )     2.95868196
  WF centre and spread    3  ( -0.000000,  0.000000, -0.000000 )     2.95868191
  WF centre and spread    4  (  0.000000,  0.000000,  0.000000 )     2.95868188
  Sum of centres and spreads ( -0.000000,  0.000000,  0.000000 )    10.49878359
 
    292    -0.231E-13     0.0000000836       10.4987835945       1.28  <-- CONV
        O_D=      0.0000000 O_OD=      3.2984004 O_TOT=     10.4987836 <-- SPRD
 Delta: O_D= -0.2435635E-21 O_OD= -0.2309264E-13 O_TOT= -0.2309264E-13 <-- DLTA
 ------------------------------------------------------------------------------
 Cycle:    293
  WF centre and spread    1  (  0.000000, -0.000000, -0.000000 )     1.62273785
  WF centre and spread    2  (  0.000000,  0.000000,  0.000000 )     2.95868196
  WF centre and spread    3  ( -0.000000,  0.000000, -0.000000 )     2.95868191
  WF centre and spread    4  (  0.000000,  0.000000,  0.000000 )     2.95868188
  Sum of centres and spreads ( -0.000000,  0.000000,  0.000000 )    10.49878359
 
    293    -0.888E-14     0.0000000835       10.4987835945       1.29  <-- CONV
        O_D=      0.0000000 O_OD=      3.2984004 O_TOT=     10.4987836 <-- SPRD
 Delta: O_D= -0.9169072E-22 O_OD= -0.8881784E-14 O_TOT= -0.8881784E-14 <-- DLTA
 ------------------------------------------------------------------------------
 Cycle:    294
  WF centre and spread    1  (  0.000000, -0.000000, -0.000000 )     1.62273785
  WF centre and spread    2  (  0.000000,  0.000000,  0.000000 )     2.95868196
  WF centre and spread    3  ( -0.000000,  0.000000, -0.000000 )     2.95868191
  WF centre and spread    4  (  0.000000,  0.000000,  0.000000 )     2.95868188
  Sum of centres and spreads ( -0.000000,  0.000000,  0.000000 )    10.49878359
 
    294     0.195E-13     0.0000000835       10.4987835945       1.29  <-- CONV
        O_D=      0.0000000 O_OD=      3.2984004 O_TOT=     10.4987836 <-- SPRD
 Delta: O_D= -0.2818737E-21 O_OD=  0.1998401E-13 O_TOT=  0.1953993E-13 <-- DLTA
 ------------------------------------------------------------------------------
 Cycle:    295
  WF centre and spread    1  (  0.000000, -0.000000, -0.000000 )     1.62273785
  WF centre and spread    2  (  0.000000,  0.000000,  0.000000 )     2.95868196
  WF centre and spread    3  ( -0.000000,  0.000000, -0.000000 )     2.95868191
  WF centre and spread    4  (  0.000000,  0.000000,  0.000000 )     2.95868188
  Sum of centres and spreads ( -0.000000,  0.000000,  0.000000 )    10.49878359
 
    295    -0.107E-13     0.0000000835       10.4987835945       1.30  <-- CONV
        O_D=      0.0000000 O_OD=      3.2984004 O_TOT=     10.4987836 <-- SPRD
 Delta: O_D= -0.1138198E-20 O_OD= -0.1110223E-13 O_TOT= -0.1065814E-13 <-- DLTA
 ------------------------------------------------------------------------------
 Cycle:    296
  WF centre and spread    1  (  0.000000, -0.000000, -0.000000 )     1.62273785
  WF centre and spread    2  (  0.000000,  0.000000,  0.000000 )     2.95868196
  WF centre and spread    3  ( -0.000000,  0.000000, -0.000000 )     2.95868191
  WF centre and spread    4  (  0.000000,  0.000000,  0.000000 )     2.95868188
  Sum of centres and spreads ( -0.000000,  0.000000,  0.000000 )    10.49878359
 
    296     0.711E-14     0.0000000833       10.4987835945       1.30  <-- CONV
        O_D=      0.0000000 O_OD=      3.2984004 O_TOT=     10.4987836 <-- SPRD
 Delta: O_D= -0.1868896E-22 O_OD=  0.7549517E-14 O_TOT=  0.7105427E-14 <-- DLTA
 ------------------------------------------------------------------------------
 Cycle:    297
  WF centre and spread    1  (  0.000000, -0.000000, -0.000000 )     1.62273785
  WF centre and spread    2  (  0.000000,  0.000000,  0.000000 )     2.95868196
  WF centre and spread    3  ( -0.000000,  0.000000, -0.000000 )     2.95868191
  WF centre and spread    4  (  0.000000,  0.000000,  0.000000 )     2.95868188
  Sum of centres and spreads ( -0.000000,  0.000000,  0.000000 )    10.49878359
 
    297    -0.355E-14     0.0000000833       10.4987835945       1.31  <-- CONV
        O_D=      0.0000000 O_OD=      3.2984004 O_TOT=     10.4987836 <-- SPRD
 Delta: O_D= -0.3847303E-22 O_OD= -0.4440892E-14 O_TOT= -0.3552714E-14 <-- DLTA
 ------------------------------------------------------------------------------
 Cycle:    298
  WF centre and spread    1  (  0.000000, -0.000000, -0.000000 )     1.62273785
  WF centre and spread    2  (  0.000000,  0.000000,  0.000000 )     2.95868196
  WF centre and spread    3  ( -0.000000,  0.000000, -0.000000 )     2.95868191
  WF centre and spread    4  (  0.000000,  0.000000,  0.000000 )     2.95868188
  Sum of centres and spreads ( -0.000000,  0.000000,  0.000000 )    10.49878359
 
    298    -0.711E-14     0.0000000833       10.4987835945       1.31  <-- CONV
        O_D=      0.0000000 O_OD=      3.2984004 O_TOT=     10.4987836 <-- SPRD
 Delta: O_D= -0.4543966E-20 O_OD= -0.6661338E-14 O_TOT= -0.7105427E-14 <-- DLTA
 ------------------------------------------------------------------------------
 Cycle:    299
  WF centre and spread    1  (  0.000000, -0.000000, -0.000000 )     1.62273785
  WF centre and spread    2  (  0.000000,  0.000000,  0.000000 )     2.95868196
  WF centre and spread    3  ( -0.000000,  0.000000, -0.000000 )     2.95868191
  WF centre and spread    4  (  0.000000,  0.000000,  0.000000 )     2.95868188
  Sum of centres and spreads ( -0.000000,  0.000000,  0.000000 )    10.49878359
 
    299     0.000E+00     0.0000000827       10.4987835945       1.31  <-- CONV
        O_D=      0.0000000 O_OD=      3.2984004 O_TOT=     10.4987836 <-- SPRD
 Delta: O_D= -0.5610774E-20 O_OD=  0.0000000E+00 O_TOT=  0.0000000E+00 <-- DLTA
 ------------------------------------------------------------------------------
 Cycle:    300
  WF centre and spread    1  (  0.000000, -0.000000, -0.000000 )     1.62273785
  WF centre and spread    2  (  0.000000,  0.000000,  0.000000 )     2.95868196
  WF centre and spread    3  ( -0.000000,  0.000000, -0.000000 )     2.95868191
  WF centre and spread    4  (  0.000000,  0.000000,  0.000000 )     2.95868188
  Sum of centres and spreads ( -0.000000,  0.000000,  0.000000 )    10.49878359
 
    300     0.444E-13     0.0000000819       10.4987835945       1.32  <-- CONV
        O_D=      0.0000000 O_OD=      3.2984004 O_TOT=     10.4987836 <-- SPRD
 Delta: O_D= -0.7292143E-22 O_OD=  0.4440892E-13 O_TOT=  0.4440892E-13 <-- DLTA
 ------------------------------------------------------------------------------

 done

 Final State
  WF centre and spread    1  (  0.000000, -0.000000, -0.000000 )     1.62273785
  WF centre and spread    2  (  0.000000,  0.000000,  0.000000 )     2.95868196
  WF centre and spread    3  ( -0.000000,  0.000000, -0.000000 )     2.95868191
  WF centre and spread    4  (  0.000000,  0.000000,  0.000000 )     2.95868188
  Sum of centres and spreads ( -0.000000,  0.000000,  0.000000 )    10.49878359
 
         Spreads (Ang^2)       Omega I      =     7.200383216
        ================       Omega D      =     0.000000000
                               Omega OD     =     3.298400379
    Final Spread (Ang^2)       Omega Total  =    10.498783595
 ------------------------------------------------------------------------------
 Time for wannierise            1.312 (sec)

 done

 *---------------------------------------------------------------------------*
 |                               PLOTTING                                    |
 *---------------------------------------------------------------------------*
 
 
 Calculating interpolated band-structure
 
 Time to calculate interpolated band structure       0.145 (sec)
 
 Time for plotting              0.177 (sec)
 Total Execution Time           1.614 (sec)

 *===========================================================================*
 |                             TIMING INFORMATION                            |
 *===========================================================================*
 |    Tag                                                Ncalls      Time (s)|
 |---------------------------------------------------------------------------|
 |kmesh: get                                        :         1         0.090|
 |overlap: allocate                                 :         1         0.000|
 |overlap: read                                     :         1         0.021|
 |wann: main                                        :         1         1.312|
 |plot: main                                        :         1         0.177|
 *---------------------------------------------------------------------------*
 
 All done: wannier90 exiting
