 
             +---------------------------------------------------+
             |                                                   |
             |                   WANNIER90                       |
             |                                                   |
             +---------------------------------------------------+
             |                                                   |
             |        Welcome to the Maximally-Localized         |
             |        Generalized Wannier Functions code         |
             |            http://www.wannier.org                 |
             |                                                   |
             |                                                   |
             |  Wannier90 Developer Group:                       |
             |    Giovanni Pizzi    (EPFL)                       |
             |    Valerio Vitale    (Cambridge)                  |
             |    David Vanderbilt  (Rutgers University)         |
             |    Nicola Marzari    (EPFL)                       |
             |    Ivo Souza         (Universidad del Pais Vasco) |
             |    Arash A. Mostofi  (Imperial College London)    |
             |    Jonathan R. Yates (University of Oxford)       |
             |                                                   |
             |  For the full list of Wannier90 3.x authors,      |
             |  please check the code documentation and the      |
             |  README on the GitHub page of the code            |
             |                                                   |
             |                                                   |
             |  Please cite                                      |
             |                                                   |
             |  [ref] "Wannier90 as a community code:            |
             |        new features and applications",            |
             |        G. Pizzi et al., J. Phys. Cond. Matt. 32,  |
             |        165902 (2020).                             |
             |        http://doi.org/10.1088/1361-648X/ab51ff    |
             |                                                   |
             |  in any publications arising from the use of      |
             |  this code. For the method please cite            |
             |                                                   |
             |  [ref] "Maximally Localized Generalised Wannier   |
             |         Functions for Composite Energy Bands"     |
             |         N. Marzari and D. Vanderbilt              |
             |         Phys. Rev. B 56 12847 (1997)              |
             |                                                   |
             |  [ref] "Maximally Localized Wannier Functions     |
             |         for Entangled Energy Bands"               |
             |         I. Souza, N. Marzari and D. Vanderbilt    |
             |         Phys. Rev. B 65 035109 (2001)             |
             |                                                   |
             |                                                   |
             | Copyright (c) 1996-2020                           |
             |        The Wannier90 Developer Group and          |
             |        individual contributors                    |
             |                                                   |
             |      Release: 3.1.0        5th March    2020      |
             |                                                   |
             | This program is free software; you can            |
             | redistribute it and/or modify it under the terms  |
             | of the GNU General Public License as published by |
             | the Free Software Foundation; either version 2 of |
             | the License, or (at your option) any later version|
             |                                                   |
             | This program is distributed in the hope that it   |
             | will be useful, but WITHOUT ANY WARRANTY; without |
             | even the implied warranty of MERCHANTABILITY or   |
             | FITNESS FOR A PARTICULAR PURPOSE. See the GNU     |
             | General Public License for more details.          |
             |                                                   |
             | You should have received a copy of the GNU General|
             | Public License along with this program; if not,   |
             | write to the Free Software Foundation, Inc.,      |
             | 675 Mass Ave, Cambridge, MA 02139, USA.           |
             |                                                   |
             +---------------------------------------------------+
             |    Execution started on 20Jun2023 at 17:01:53     |
             +---------------------------------------------------+
 
 ******************************************************************************
 * -> Using CODATA 2006 constant values                                       *
 *    (http://physics.nist.gov/cuu/Constants/index.html)                      *
 * -> Using Bohr value from CODATA                                            *
 ******************************************************************************
 

 Running in serial (with parallel executable)
 
                                    ------
                                    SYSTEM
                                    ------
 
                              Lattice Vectors (Ang)
                    a_1    -2.432387   0.000000   2.432387
                    a_2     0.000000   2.432387   2.432387
                    a_3    -2.432387   2.432387   0.000000
 
                   Unit Cell Volume:      28.78245  (Ang^3)
 
                        Reciprocal-Space Vectors (Ang^-1)
                    b_1    -1.291568  -1.291568   1.291568
                    b_2     1.291568   1.291568   1.291568
                    b_3    -1.291568   1.291568  -1.291568
  
 *----------------------------------------------------------------------------*
 |   Site       Fractional Coordinate          Cartesian Coordinate (Ang)     |
 +----------------------------------------------------------------------------+
 | Pb   1   0.00000   0.00000   0.00000   |    0.00000   0.00000   0.00000    |
 *----------------------------------------------------------------------------*
                                ------------
                                K-POINT GRID
                                ------------
  
             Grid size =  6 x  6 x  6      Total points =  216
  
  
 *---------------------------------- MAIN ------------------------------------*
 |  Number of Wannier Functions               :                 4             |
 |  Number of Objective Wannier Functions     :                 4             |
 |  Number of input Bloch states              :                 4             |
 |  Output verbosity (1=low, 5=high)          :                 1             |
 |  Timing Level (1=low, 5=high)              :                 1             |
 |  Optimisation (0=memory, 3=speed)          :                 3             |
 |  Length Unit                               :               Ang             |
 |  Post-processing setup (write *.nnkp)      :                 F             |
 |  Using Gamma-only branch of algorithms     :                 F             |
 *----------------------------------------------------------------------------*
 *------------------------------- WANNIERISE ---------------------------------*
 |  Total number of iterations                :               300             |
 |  Number of CG steps before reset           :                 5             |
 |  Trial step length for line search         :             2.000             |
 |  Convergence tolerence                     :         0.100E-09             |
 |  Convergence window                        :                -1             |
 |  Iterations between writing output         :                 1             |
 |  Iterations between backing up to disk     :               100             |
 |  Write r^2_nm to file                      :                 F             |
 |  Write xyz WF centres to file              :                 F             |
 |  Write on-site energies <0n|H|0n> to file  :                 F             |
 |  Use guiding centre to control phases      :                 F             |
 |  Use phases for initial projections        :                 F             |
 *----------------------------------------------------------------------------*
 *-------------------------------- PLOTTING ----------------------------------*
 |  Plotting interpolated bandstructure       :                 T             |
 |   Number of K-path sections                :                 6             |
 |   Divisions along first K-path section     :               100             |
 |   Output format                            :           gnuplot             |
 |   Output mode                              :               s-k             |
 *----------------------------------------------------------------------------*
 |   K-space path sections:                                                   |
 |    From: G       0.000  0.000  0.000     To: X       0.000  0.500  0.500   |
 |    From: X       0.000  0.500  0.500     To: W       0.250  0.500  0.750   |
 |    From: W       0.250  0.500  0.750     To: L       0.500  0.500  0.500   |
 |    From: L       0.500  0.500  0.500     To: K       0.375  0.375  0.750   |
 |    From: K       0.375  0.375  0.750     To: G       0.000  0.000  0.000   |
 |    From: G       0.000  0.000  0.000     To: L       0.500  0.500  0.500   |
 *----------------------------------------------------------------------------*
 Time to read parameters        0.041 (sec)

 *---------------------------------- K-MESH ----------------------------------*
 +----------------------------------------------------------------------------+
 |                    Distance to Nearest-Neighbour Shells                    |
 |                    ------------------------------------                    |
 |          Shell             Distance (Ang^-1)          Multiplicity         |
 |          -----             -----------------          ------------         |
 |             1                   0.372844                      8            |
 |             2                   0.430523                      6            |
 |             3                   0.608851                     12            |
 |             4                   0.713941                     24            |
 |             5                   0.745687                      8            |
 |             6                   0.861045                      6            |
 |             7                   0.938302                     24            |
 |             8                   0.962678                     24            |
 |             9                   1.054561                     24            |
 |            10                   1.118531                     32            |
 |            11                   1.217702                     12            |
 |            12                   1.273503                     48            |
 |            13                   1.291568                     30            |
 |            14                   1.361432                     24            |
 |            15                   1.411563                     24            |
 |            16                   1.427882                     24            |
 |            17                   1.491374                      8            |
 |            18                   1.537273                     48            |
 |            19                   1.552272                     24            |
 |            20                   1.610868                     48            |
 |            21                   1.653454                     72            |
 |            22                   1.722091                      6            |
 |            23                   1.761990                     24            |
 |            24                   1.775090                     48            |
 |            25                   1.826553                     36            |
 |            26                   1.864218                     56            |
 |            27                   1.876605                     24            |
 |            28                   1.925356                     24            |
 |            29                   1.961124                     72            |
 |            30                   1.972903                     48            |
 |            31                   2.019330                     24            |
 |            32                   2.053462                     48            |
 |            33                   2.109122                     24            |
 |            34                   2.141823                     72            |
 |            35                   2.152613                     30            |
 |            36                   2.195243                     72            |
 +----------------------------------------------------------------------------+
 | The b-vectors are chosen automatically                                     |
 | The following shells are used:   1                                         |
 +----------------------------------------------------------------------------+
 |                        Shell   # Nearest-Neighbours                        |
 |                        -----   --------------------                        |
 |                          1               8                                 |
 +----------------------------------------------------------------------------+
 | Completeness relation is fully satisfied [Eq. (B1), PRB 56, 12847 (1997)]  |
 +----------------------------------------------------------------------------+
 |                  b_k Vectors (Ang^-1) and Weights (Ang^2)                  |
 |                  ----------------------------------------                  |
 |            No.         b_k(x)      b_k(y)      b_k(z)        w_b           |
 |            ---        --------------------------------     --------        |
 |             1        -0.215261    0.215261   -0.215261     2.697602        |
 |             2         0.215261    0.215261    0.215261     2.697602        |
 |             3        -0.215261   -0.215261    0.215261     2.697602        |
 |             4        -0.215261    0.215261    0.215261     2.697602        |
 |             5         0.215261   -0.215261    0.215261     2.697602        |
 |             6        -0.215261   -0.215261   -0.215261     2.697602        |
 |             7         0.215261    0.215261   -0.215261     2.697602        |
 |             8         0.215261   -0.215261   -0.215261     2.697602        |
 +----------------------------------------------------------------------------+
 |                           b_k Directions (Ang^-1)                          |
 |                           -----------------------                          |
 |            No.           x           y           z                         |
 |            ---        --------------------------------                     |
 |             1        -0.215261    0.215261   -0.215261                     |
 |             2         0.215261    0.215261    0.215261                     |
 |             3        -0.215261   -0.215261    0.215261                     |
 |             4        -0.215261    0.215261    0.215261                     |
 +----------------------------------------------------------------------------+
  
 Time to get kmesh              0.124 (sec)
 *============================================================================*
 |                              MEMORY ESTIMATE                               |
 |         Maximum RAM allocated during each phase of the calculation         |
 *============================================================================*
 |                            Wannierise:            1.41 Mb                  |
 |                          plot_wannier:            1.41 Mb                  |
 *----------------------------------------------------------------------------*
  
 Starting a new Wannier90 calculation ...


 Reading overlaps from pb.mmn    :  intw2W90::CONVOLUTION-IBZ time:: 17:01:48 day:: 2

 Reading projections from pb.amn :  intw2W90::CONVOLUTION time:: 17:01:52 day:: 20/06

 Time to read overlaps          0.031 (sec)

 Writing checkpoint file pb.chk... done

 
 *------------------------------- WANNIERISE ---------------------------------*
 +--------------------------------------------------------------------+<-- CONV
 | Iter  Delta Spread     RMS Gradient      Spread (Ang^2)      Time  |<-- CONV
 +--------------------------------------------------------------------+<-- CONV
 
 ------------------------------------------------------------------------------
 Initial State
  WF centre and spread    1  (  0.000000, -0.000000, -0.000000 )     2.23812563
  WF centre and spread    2  (  0.000000,  0.000000,  0.000000 )     3.18658596
  WF centre and spread    3  ( -0.000000,  0.000000, -0.000000 )     3.15300040
  WF centre and spread    4  (  0.000000,  0.000000,  0.000000 )     3.15300041
  Sum of centres and spreads (  0.000000, -0.000000, -0.000000 )    11.73071240
 
      0     0.117E+02     0.0000000000       11.7307123988       0.00  <-- CONV
        O_D=      0.0000000 O_OD=      4.5303292 O_TOT=     11.7307124 <-- SPRD
 ------------------------------------------------------------------------------
 Cycle:      1
  WF centre and spread    1  (  0.000000, -0.000000,  0.000000 )     1.80158283
  WF centre and spread    2  (  0.000000,  0.000000, -0.000000 )     3.04479664
  WF centre and spread    3  ( -0.000000,  0.000000, -0.000000 )     3.05338343
  WF centre and spread    4  (  0.000000,  0.000000,  0.000000 )     3.05338343
  Sum of centres and spreads ( -0.000000,  0.000000, -0.000000 )    10.95314633
 
      1    -0.778E+00     0.4894094267       10.9531463294       0.01  <-- CONV
        O_D=      0.0000000 O_OD=      3.7527631 O_TOT=     10.9531463 <-- SPRD
 Delta: O_D=  0.5563212E-11 O_OD= -0.7775661E+00 O_TOT= -0.7775661E+00 <-- DLTA
 ------------------------------------------------------------------------------
 Cycle:      2
  WF centre and spread    1  ( -0.000000, -0.000000,  0.000000 )     1.67362179
  WF centre and spread    2  (  0.000000,  0.000000, -0.000000 )     2.99505376
  WF centre and spread    3  ( -0.000000,  0.000000, -0.000000 )     2.99485689
  WF centre and spread    4  (  0.000000,  0.000000, -0.000000 )     2.99485687
  Sum of centres and spreads ( -0.000000,  0.000000, -0.000000 )    10.65838931
 
      2    -0.295E+00     0.4923392875       10.6583893084       0.01  <-- CONV
        O_D=      0.0000000 O_OD=      3.4580061 O_TOT=     10.6583893 <-- SPRD
 Delta: O_D= -0.3265459E-11 O_OD= -0.2947570E+00 O_TOT= -0.2947570E+00 <-- DLTA
 ------------------------------------------------------------------------------
 Cycle:      3
  WF centre and spread    1  ( -0.000000, -0.000000,  0.000000 )     1.63343518
  WF centre and spread    2  (  0.000000,  0.000000, -0.000000 )     2.96875767
  WF centre and spread    3  ( -0.000000,  0.000000, -0.000000 )     2.97187923
  WF centre and spread    4  (  0.000000,  0.000000, -0.000000 )     2.97187919
  Sum of centres and spreads ( -0.000000,  0.000000, -0.000000 )    10.54595128
 
      3    -0.112E+00     0.3043420328       10.5459512752       0.02  <-- CONV
        O_D=      0.0000000 O_OD=      3.3455681 O_TOT=     10.5459513 <-- SPRD
 Delta: O_D= -0.2098219E-11 O_OD= -0.1124380E+00 O_TOT= -0.1124380E+00 <-- DLTA
 ------------------------------------------------------------------------------
 Cycle:      4
  WF centre and spread    1  ( -0.000000,  0.000000,  0.000000 )     1.62235223
  WF centre and spread    2  (  0.000000,  0.000000, -0.000000 )     2.96289931
  WF centre and spread    3  ( -0.000000,  0.000000, -0.000000 )     2.96588567
  WF centre and spread    4  (  0.000000,  0.000000, -0.000000 )     2.96588563
  Sum of centres and spreads ( -0.000000,  0.000000, -0.000000 )    10.51702284
 
      4    -0.289E-01     0.1502902318       10.5170228405       0.03  <-- CONV
        O_D=      0.0000000 O_OD=      3.3166396 O_TOT=     10.5170228 <-- SPRD
 Delta: O_D= -0.3678396E-12 O_OD= -0.2892843E-01 O_TOT= -0.2892843E-01 <-- DLTA
 ------------------------------------------------------------------------------
 Cycle:      5
  WF centre and spread    1  ( -0.000000,  0.000000,  0.000000 )     1.62017785
  WF centre and spread    2  (  0.000000,  0.000000, -0.000000 )     2.96071220
  WF centre and spread    3  ( -0.000000,  0.000000, -0.000000 )     2.96273060
  WF centre and spread    4  (  0.000000,  0.000000, -0.000000 )     2.96273056
  Sum of centres and spreads ( -0.000000,  0.000000, -0.000000 )    10.50635121
 
      5    -0.107E-01     0.0852627049       10.5063512078       0.03  <-- CONV
        O_D=      0.0000000 O_OD=      3.3059680 O_TOT=     10.5063512 <-- SPRD
 Delta: O_D= -0.4275711E-13 O_OD= -0.1067163E-01 O_TOT= -0.1067163E-01 <-- DLTA
 ------------------------------------------------------------------------------
 Cycle:      6
  WF centre and spread    1  ( -0.000000,  0.000000,  0.000000 )     1.62004596
  WF centre and spread    2  (  0.000000,  0.000000, -0.000000 )     2.95978994
  WF centre and spread    3  ( -0.000000,  0.000000, -0.000000 )     2.96135528
  WF centre and spread    4  (  0.000000,  0.000000, -0.000000 )     2.96135525
  Sum of centres and spreads ( -0.000000,  0.000000, -0.000000 )    10.50254643
 
      6    -0.380E-02     0.0505993167       10.5025464269       0.04  <-- CONV
        O_D=      0.0000000 O_OD=      3.3021632 O_TOT=     10.5025464 <-- SPRD
 Delta: O_D= -0.4070115E-13 O_OD= -0.3804781E-02 O_TOT= -0.3804781E-02 <-- DLTA
 ------------------------------------------------------------------------------
 Cycle:      7
  WF centre and spread    1  ( -0.000000,  0.000000,  0.000000 )     1.62031386
  WF centre and spread    2  (  0.000000,  0.000000, -0.000000 )     2.95911583
  WF centre and spread    3  ( -0.000000,  0.000000, -0.000000 )     2.96032559
  WF centre and spread    4  (  0.000000,  0.000000, -0.000000 )     2.96032556
  Sum of centres and spreads ( -0.000000,  0.000000, -0.000000 )    10.50008084
 
      7    -0.247E-02     0.0356383939       10.5000808408       0.05  <-- CONV
        O_D=      0.0000000 O_OD=      3.2996976 O_TOT=     10.5000808 <-- SPRD
 Delta: O_D=  0.2596027E-13 O_OD= -0.2465586E-02 O_TOT= -0.2465586E-02 <-- DLTA
 ------------------------------------------------------------------------------
 Cycle:      8
  WF centre and spread    1  ( -0.000000, -0.000000,  0.000000 )     1.62128275
  WF centre and spread    2  (  0.000000,  0.000000, -0.000000 )     2.95877653
  WF centre and spread    3  ( -0.000000,  0.000000, -0.000000 )     2.95958016
  WF centre and spread    4  (  0.000000,  0.000000, -0.000000 )     2.95958013
  Sum of centres and spreads ( -0.000000,  0.000000, -0.000000 )    10.49921957
 
      8    -0.861E-03     0.0217888884       10.4992195743       0.05  <-- CONV
        O_D=      0.0000000 O_OD=      3.2988364 O_TOT=     10.4992196 <-- SPRD
 Delta: O_D= -0.2297055E-14 O_OD= -0.8612665E-03 O_TOT= -0.8612665E-03 <-- DLTA
 ------------------------------------------------------------------------------
 Cycle:      9
  WF centre and spread    1  ( -0.000000, -0.000000,  0.000000 )     1.62233622
  WF centre and spread    2  (  0.000000,  0.000000, -0.000000 )     2.95857431
  WF centre and spread    3  ( -0.000000,  0.000000, -0.000000 )     2.95898435
  WF centre and spread    4  (  0.000000,  0.000000, -0.000000 )     2.95898432
  Sum of centres and spreads ( -0.000000,  0.000000, -0.000000 )    10.49887921
 
      9    -0.340E-03     0.0133369122       10.4988792075       0.06  <-- CONV
        O_D=      0.0000000 O_OD=      3.2984960 O_TOT=     10.4988792 <-- SPRD
 Delta: O_D=  0.4051925E-14 O_OD= -0.3403668E-03 O_TOT= -0.3403668E-03 <-- DLTA
 ------------------------------------------------------------------------------
 Cycle:     10
  WF centre and spread    1  ( -0.000000, -0.000000,  0.000000 )     1.62272761
  WF centre and spread    2  (  0.000000,  0.000000, -0.000000 )     2.95854663
  WF centre and spread    3  ( -0.000000,  0.000000, -0.000000 )     2.95876165
  WF centre and spread    4  (  0.000000,  0.000000,  0.000000 )     2.95876162
  Sum of centres and spreads ( -0.000000,  0.000000, -0.000000 )    10.49879751
 
     10    -0.817E-04     0.0068724852       10.4987975149       0.07  <-- CONV
        O_D=      0.0000000 O_OD=      3.2984143 O_TOT=     10.4987975 <-- SPRD
 Delta: O_D=  0.1518944E-13 O_OD= -0.8169265E-04 O_TOT= -0.8169265E-04 <-- DLTA
 ------------------------------------------------------------------------------
 Cycle:     11
  WF centre and spread    1  ( -0.000000, -0.000000,  0.000000 )     1.62277226
  WF centre and spread    2  (  0.000000,  0.000000, -0.000000 )     2.95857186
  WF centre and spread    3  ( -0.000000,  0.000000, -0.000000 )     2.95872088
  WF centre and spread    4  (  0.000000,  0.000000,  0.000000 )     2.95872085
  Sum of centres and spreads ( -0.000000,  0.000000, -0.000000 )    10.49878586
 
     11    -0.117E-04     0.0029547550       10.4987858624       0.07  <-- CONV
        O_D=      0.0000000 O_OD=      3.2984026 O_TOT=     10.4987859 <-- SPRD
 Delta: O_D= -0.2456745E-13 O_OD= -0.1165248E-04 O_TOT= -0.1165248E-04 <-- DLTA
 ------------------------------------------------------------------------------
 Cycle:     12
  WF centre and spread    1  ( -0.000000, -0.000000,  0.000000 )     1.62276259
  WF centre and spread    2  (  0.000000,  0.000000, -0.000000 )     2.95859406
  WF centre and spread    3  ( -0.000000,  0.000000, -0.000000 )     2.95871421
  WF centre and spread    4  (  0.000000,  0.000000,  0.000000 )     2.95871418
  Sum of centres and spreads ( -0.000000,  0.000000, -0.000000 )    10.49878503
 
     12    -0.834E-06     0.0008190489       10.4987850285       0.08  <-- CONV
        O_D=      0.0000000 O_OD=      3.2984018 O_TOT=     10.4987850 <-- SPRD
 Delta: O_D= -0.1538742E-13 O_OD= -0.8338766E-06 O_TOT= -0.8338766E-06 <-- DLTA
 ------------------------------------------------------------------------------
 Cycle:     13
  WF centre and spread    1  ( -0.000000, -0.000000,  0.000000 )     1.62275769
  WF centre and spread    2  (  0.000000,  0.000000, -0.000000 )     2.95860697
  WF centre and spread    3  ( -0.000000,  0.000000, -0.000000 )     2.95871012
  WF centre and spread    4  (  0.000000,  0.000000,  0.000000 )     2.95871009
  Sum of centres and spreads ( -0.000000,  0.000000, -0.000000 )    10.49878487
 
     13    -0.156E-06     0.0003785532       10.4987848729       0.09  <-- CONV
        O_D=      0.0000000 O_OD=      3.2984017 O_TOT=     10.4987849 <-- SPRD
 Delta: O_D= -0.1200207E-13 O_OD= -0.1556423E-06 O_TOT= -0.1556423E-06 <-- DLTA
 ------------------------------------------------------------------------------
 Cycle:     14
  WF centre and spread    1  ( -0.000000, -0.000000,  0.000000 )     1.62275140
  WF centre and spread    2  (  0.000000,  0.000000, -0.000000 )     2.95862937
  WF centre and spread    3  ( -0.000000,  0.000000, -0.000000 )     2.95870204
  WF centre and spread    4  (  0.000000,  0.000000,  0.000000 )     2.95870201
  Sum of centres and spreads ( -0.000000,  0.000000, -0.000000 )    10.49878481
 
     14    -0.669E-07     0.0001940078       10.4987848060       0.09  <-- CONV
        O_D=      0.0000000 O_OD=      3.2984016 O_TOT=     10.4987848 <-- SPRD
 Delta: O_D= -0.4733734E-14 O_OD= -0.6685228E-07 O_TOT= -0.6685228E-07 <-- DLTA
 ------------------------------------------------------------------------------
 Cycle:     15
  WF centre and spread    1  ( -0.000000, -0.000000,  0.000000 )     1.62274995
  WF centre and spread    2  (  0.000000,  0.000000, -0.000000 )     2.95864945
  WF centre and spread    3  ( -0.000000,  0.000000, -0.000000 )     2.95869271
  WF centre and spread    4  (  0.000000,  0.000000,  0.000000 )     2.95869268
  Sum of centres and spreads ( -0.000000,  0.000000, -0.000000 )    10.49878479
 
     15    -0.195E-07     0.0000950990       10.4987847865       0.10  <-- CONV
        O_D=      0.0000000 O_OD=      3.2984016 O_TOT=     10.4987848 <-- SPRD
 Delta: O_D=  0.2264642E-13 O_OD= -0.1952137E-07 O_TOT= -0.1952135E-07 <-- DLTA
 ------------------------------------------------------------------------------
 Cycle:     16
  WF centre and spread    1  ( -0.000000, -0.000000,  0.000000 )     1.62275081
  WF centre and spread    2  (  0.000000,  0.000000, -0.000000 )     2.95867665
  WF centre and spread    3  ( -0.000000,  0.000000, -0.000000 )     2.95867867
  WF centre and spread    4  (  0.000000,  0.000000,  0.000000 )     2.95867864
  Sum of centres and spreads ( -0.000000,  0.000000, -0.000000 )    10.49878477
 
     16    -0.180E-07     0.0000810605       10.4987847685       0.10  <-- CONV
        O_D=      0.0000000 O_OD=      3.2984016 O_TOT=     10.4987848 <-- SPRD
 Delta: O_D=  0.1384176E-12 O_OD= -0.1802044E-07 O_TOT= -0.1802030E-07 <-- DLTA
 ------------------------------------------------------------------------------
 Cycle:     17
  WF centre and spread    1  ( -0.000000, -0.000000,  0.000000 )     1.62275235
  WF centre and spread    2  (  0.000000,  0.000000, -0.000000 )     2.95869574
  WF centre and spread    3  ( -0.000000,  0.000000, -0.000000 )     2.95866835
  WF centre and spread    4  (  0.000000,  0.000000,  0.000000 )     2.95866831
  Sum of centres and spreads ( -0.000000,  0.000000, -0.000000 )    10.49878475
 
     17    -0.160E-07     0.0000754753       10.4987847525       0.11  <-- CONV
        O_D=      0.0000000 O_OD=      3.2984015 O_TOT=     10.4987848 <-- SPRD
 Delta: O_D=  0.8109264E-12 O_OD= -0.1599211E-07 O_TOT= -0.1599130E-07 <-- DLTA
 ------------------------------------------------------------------------------
 Cycle:     18
  WF centre and spread    1  ( -0.000000, -0.000000,  0.000000 )     1.62275258
  WF centre and spread    2  (  0.000000,  0.000000, -0.000000 )     2.95870363
  WF centre and spread    3  ( -0.000000,  0.000000, -0.000000 )     2.95866427
  WF centre and spread    4  (  0.000000,  0.000000,  0.000000 )     2.95866424
  Sum of centres and spreads ( -0.000000,  0.000000, -0.000000 )    10.49878473
 
     18    -0.197E-07     0.0000741925       10.4987847328       0.12  <-- CONV
        O_D=      0.0000000 O_OD=      3.2984015 O_TOT=     10.4987847 <-- SPRD
 Delta: O_D=  0.4967210E-11 O_OD= -0.1972552E-07 O_TOT= -0.1972056E-07 <-- DLTA
 ------------------------------------------------------------------------------
 Cycle:     19
  WF centre and spread    1  ( -0.000000, -0.000000,  0.000000 )     1.62275167
  WF centre and spread    2  (  0.000000,  0.000000, -0.000000 )     2.95869456
  WF centre and spread    3  ( -0.000000,  0.000000, -0.000000 )     2.95866926
  WF centre and spread    4  (  0.000000,  0.000000,  0.000000 )     2.95866923
  Sum of centres and spreads ( -0.000000,  0.000000, -0.000000 )    10.49878472
 
     19    -0.131E-07     0.0000850974       10.4987847197       0.12  <-- CONV
        O_D=      0.0000000 O_OD=      3.2984015 O_TOT=     10.4987847 <-- SPRD
 Delta: O_D=  0.1699888E-10 O_OD= -0.1312551E-07 O_TOT= -0.1310851E-07 <-- DLTA
 ------------------------------------------------------------------------------
 Cycle:     20
  WF centre and spread    1  (  0.000000, -0.000000,  0.000000 )     1.62275018
  WF centre and spread    2  (  0.000000,  0.000000, -0.000000 )     2.95867408
  WF centre and spread    3  ( -0.000000,  0.000000, -0.000000 )     2.95868023
  WF centre and spread    4  (  0.000000,  0.000000,  0.000000 )     2.95868020
  Sum of centres and spreads ( -0.000000,  0.000000, -0.000000 )    10.49878470
 
     20    -0.169E-07     0.0000711269       10.4987847028       0.13  <-- CONV
        O_D=      0.0000000 O_OD=      3.2984015 O_TOT=     10.4987847 <-- SPRD
 Delta: O_D=  0.7001362E-10 O_OD= -0.1693600E-07 O_TOT= -0.1686599E-07 <-- DLTA
 ------------------------------------------------------------------------------
 Cycle:     21
  WF centre and spread    1  (  0.000000, -0.000000,  0.000000 )     1.62274977
  WF centre and spread    2  (  0.000000,  0.000000, -0.000000 )     2.95865298
  WF centre and spread    3  ( -0.000000,  0.000000, -0.000000 )     2.95869098
  WF centre and spread    4  (  0.000000,  0.000000,  0.000000 )     2.95869095
  Sum of centres and spreads ( -0.000000,  0.000000, -0.000000 )    10.49878469
 
     21    -0.142E-07     0.0000650477       10.4987846886       0.14  <-- CONV
        O_D=      0.0000000 O_OD=      3.2984015 O_TOT=     10.4987847 <-- SPRD
 Delta: O_D=  0.6489607E-09 O_OD= -0.1489123E-07 O_TOT= -0.1424227E-07 <-- DLTA
 ------------------------------------------------------------------------------
 Cycle:     22
  WF centre and spread    1  (  0.000000, -0.000000,  0.000000 )     1.62274977
  WF centre and spread    2  (  0.000000,  0.000000, -0.000000 )     2.95862854
  WF centre and spread    3  ( -0.000000,  0.000000, -0.000000 )     2.95870320
  WF centre and spread    4  (  0.000000,  0.000000,  0.000000 )     2.95870317
  Sum of centres and spreads ( -0.000000,  0.000000, -0.000000 )    10.49878467
 
     22    -0.165E-07     0.0000835087       10.4987846721       0.14  <-- CONV
        O_D=      0.0000000 O_OD=      3.2984015 O_TOT=     10.4987847 <-- SPRD
 Delta: O_D=  0.1539082E-08 O_OD= -0.1802675E-07 O_TOT= -0.1648767E-07 <-- DLTA
 ------------------------------------------------------------------------------
 Cycle:     23
  WF centre and spread    1  (  0.000000, -0.000000,  0.000001 )     1.62274980
  WF centre and spread    2  (  0.000000,  0.000000, -0.000001 )     2.95860691
  WF centre and spread    3  ( -0.000000,  0.000000, -0.000000 )     2.95871398
  WF centre and spread    4  (  0.000000,  0.000000,  0.000000 )     2.95871395
  Sum of centres and spreads ( -0.000000,  0.000000, -0.000000 )    10.49878464
 
     23    -0.300E-07     0.0001116926       10.4987846421       0.15  <-- CONV
        O_D=      0.0000000 O_OD=      3.2984014 O_TOT=     10.4987846 <-- SPRD
 Delta: O_D= -0.1164280E-08 O_OD= -0.2885376E-07 O_TOT= -0.3001804E-07 <-- DLTA
 ------------------------------------------------------------------------------
 Cycle:     24
  WF centre and spread    1  (  0.000000, -0.000000,  0.000001 )     1.62274954
  WF centre and spread    2  (  0.000000,  0.000000, -0.000001 )     2.95859722
  WF centre and spread    3  ( -0.000000,  0.000000,  0.000000 )     2.95871892
  WF centre and spread    4  (  0.000000,  0.000000,  0.000000 )     2.95871889
  Sum of centres and spreads ( -0.000000,  0.000000, -0.000000 )    10.49878458
 
     24    -0.653E-07     0.0001309440       10.4987845768       0.16  <-- CONV
        O_D=      0.0000000 O_OD=      3.2984014 O_TOT=     10.4987846 <-- SPRD
 Delta: O_D= -0.1071722E-08 O_OD= -0.6418763E-07 O_TOT= -0.6525935E-07 <-- DLTA
 ------------------------------------------------------------------------------
 Cycle:     25
  WF centre and spread    1  (  0.000000, -0.000000,  0.000001 )     1.62274903
  WF centre and spread    2  (  0.000000,  0.000000, -0.000001 )     2.95861267
  WF centre and spread    3  ( -0.000000,  0.000000,  0.000000 )     2.95871142
  WF centre and spread    4  (  0.000000,  0.000000,  0.000000 )     2.95871139
  Sum of centres and spreads ( -0.000000,  0.000000, -0.000000 )    10.49878451
 
     25    -0.701E-07     0.0002206422       10.4987845067       0.16  <-- CONV
        O_D=      0.0000000 O_OD=      3.2984013 O_TOT=     10.4987845 <-- SPRD
 Delta: O_D=  0.3116904E-10 O_OD= -0.7012065E-07 O_TOT= -0.7008948E-07 <-- DLTA
 ------------------------------------------------------------------------------
 Cycle:     26
  WF centre and spread    1  (  0.000000, -0.000000,  0.000001 )     1.62274785
  WF centre and spread    2  (  0.000000,  0.000000, -0.000001 )     2.95864011
  WF centre and spread    3  ( -0.000000,  0.000000,  0.000000 )     2.95869827
  WF centre and spread    4  (  0.000000,  0.000000,  0.000000 )     2.95869824
  Sum of centres and spreads ( -0.000000,  0.000000, -0.000000 )    10.49878447
 
     26    -0.331E-07     0.0001181969       10.4987844736       0.17  <-- CONV
        O_D=      0.0000000 O_OD=      3.2984013 O_TOT=     10.4987845 <-- SPRD
 Delta: O_D=  0.2114621E-09 O_OD= -0.3329608E-07 O_TOT= -0.3308462E-07 <-- DLTA
 ------------------------------------------------------------------------------
 Cycle:     27
  WF centre and spread    1  (  0.000000, -0.000000,  0.000002 )     1.62274661
  WF centre and spread    2  (  0.000000,  0.000000, -0.000002 )     2.95867365
  WF centre and spread    3  ( -0.000000,  0.000000,  0.000000 )     2.95868211
  WF centre and spread    4  (  0.000000,  0.000000,  0.000000 )     2.95868208
  Sum of centres and spreads ( -0.000000,  0.000000, -0.000000 )    10.49878445
 
     27    -0.261E-07     0.0001080754       10.4987844475       0.18  <-- CONV
        O_D=      0.0000000 O_OD=      3.2984012 O_TOT=     10.4987844 <-- SPRD
 Delta: O_D=  0.3514658E-09 O_OD= -0.2643106E-07 O_TOT= -0.2607959E-07 <-- DLTA
 ------------------------------------------------------------------------------
 Cycle:     28
  WF centre and spread    1  (  0.000000, -0.000000,  0.000002 )     1.62274695
  WF centre and spread    2  (  0.000000,  0.000000, -0.000002 )     2.95868293
  WF centre and spread    3  ( -0.000000,  0.000000,  0.000000 )     2.95867730
  WF centre and spread    4  (  0.000000,  0.000000,  0.000000 )     2.95867727
  Sum of centres and spreads ( -0.000000,  0.000000, -0.000000 )    10.49878444
 
     28    -0.709E-08     0.0000703543       10.4987844405       0.18  <-- CONV
        O_D=      0.0000000 O_OD=      3.2984012 O_TOT=     10.4987844 <-- SPRD
 Delta: O_D=  0.8143881E-10 O_OD= -0.7171018E-08 O_TOT= -0.7089579E-08 <-- DLTA
 ------------------------------------------------------------------------------
 Cycle:     29
  WF centre and spread    1  (  0.000000, -0.000000,  0.000002 )     1.62274829
  WF centre and spread    2  (  0.000000,  0.000000, -0.000002 )     2.95868932
  WF centre and spread    3  ( -0.000000,  0.000000,  0.000000 )     2.95867342
  WF centre and spread    4  (  0.000000,  0.000000,  0.000000 )     2.95867339
  Sum of centres and spreads ( -0.000000,  0.000000, -0.000000 )    10.49878443
 
     29    -0.844E-08     0.0000570998       10.4987844320       0.19  <-- CONV
        O_D=      0.0000000 O_OD=      3.2984012 O_TOT=     10.4987844 <-- SPRD
 Delta: O_D=  0.2815763E-09 O_OD= -0.8716604E-08 O_TOT= -0.8435027E-08 <-- DLTA
 ------------------------------------------------------------------------------
 Cycle:     30
  WF centre and spread    1  (  0.000000, -0.000000,  0.000003 )     1.62274970
  WF centre and spread    2  (  0.000000,  0.000000, -0.000003 )     2.95869242
  WF centre and spread    3  ( -0.000000,  0.000000,  0.000000 )     2.95867116
  WF centre and spread    4  (  0.000000,  0.000000,  0.000000 )     2.95867113
  Sum of centres and spreads ( -0.000000,  0.000000, -0.000000 )    10.49878442
 
     30    -0.126E-07     0.0000702981       10.4987844194       0.19  <-- CONV
        O_D=      0.0000000 O_OD=      3.2984012 O_TOT=     10.4987844 <-- SPRD
 Delta: O_D= -0.7962456E-09 O_OD= -0.1183222E-07 O_TOT= -0.1262846E-07 <-- DLTA
 ------------------------------------------------------------------------------
 Cycle:     31
  WF centre and spread    1  (  0.000000, -0.000000,  0.000003 )     1.62274829
  WF centre and spread    2  (  0.000000,  0.000000, -0.000003 )     2.95868794
  WF centre and spread    3  ( -0.000000,  0.000000,  0.000000 )     2.95867411
  WF centre and spread    4  (  0.000000,  0.000000,  0.000000 )     2.95867408
  Sum of centres and spreads ( -0.000000,  0.000000, -0.000000 )    10.49878441
 
     31    -0.107E-07     0.0000767135       10.4987844086       0.20  <-- CONV
        O_D=      0.0000000 O_OD=      3.2984012 O_TOT=     10.4987844 <-- SPRD
 Delta: O_D=  0.4364134E-09 O_OD= -0.1117915E-07 O_TOT= -0.1074274E-07 <-- DLTA
 ------------------------------------------------------------------------------
 Cycle:     32
  WF centre and spread    1  (  0.000000, -0.000000,  0.000003 )     1.62274667
  WF centre and spread    2  (  0.000000,  0.000000, -0.000003 )     2.95868068
  WF centre and spread    3  ( -0.000000,  0.000000,  0.000000 )     2.95867854
  WF centre and spread    4  (  0.000000,  0.000000,  0.000000 )     2.95867851
  Sum of centres and spreads ( -0.000000,  0.000000, -0.000000 )    10.49878440
 
     32    -0.858E-08     0.0000629221       10.4987844001       0.21  <-- CONV
        O_D=      0.0000000 O_OD=      3.2984012 O_TOT=     10.4987844 <-- SPRD
 Delta: O_D= -0.1238609E-09 O_OD= -0.8458926E-08 O_TOT= -0.8582786E-08 <-- DLTA
 ------------------------------------------------------------------------------
 Cycle:     33
  WF centre and spread    1  (  0.000000, -0.000000,  0.000004 )     1.62274554
  WF centre and spread    2  (  0.000000,  0.000000, -0.000004 )     2.95866656
  WF centre and spread    3  ( -0.000000,  0.000000,  0.000000 )     2.95868616
  WF centre and spread    4  (  0.000000,  0.000000,  0.000000 )     2.95868613
  Sum of centres and spreads ( -0.000000,  0.000000, -0.000000 )    10.49878440
 
     33    -0.486E-08     0.0000514082       10.4987843952       0.21  <-- CONV
        O_D=      0.0000000 O_OD=      3.2984012 O_TOT=     10.4987844 <-- SPRD
 Delta: O_D=  0.2358538E-08 O_OD= -0.7214997E-08 O_TOT= -0.4856460E-08 <-- DLTA
 ------------------------------------------------------------------------------
 Cycle:     34
  WF centre and spread    1  (  0.000000, -0.000000,  0.000004 )     1.62274603
  WF centre and spread    2  (  0.000000,  0.000000, -0.000004 )     2.95866734
  WF centre and spread    3  ( -0.000000,  0.000000,  0.000000 )     2.95868552
  WF centre and spread    4  (  0.000000,  0.000000,  0.000000 )     2.95868549
  Sum of centres and spreads ( -0.000000,  0.000000, -0.000000 )    10.49878439
 
     34    -0.101E-07     0.0001056436       10.4987843851       0.22  <-- CONV
        O_D=      0.0000000 O_OD=      3.2984012 O_TOT=     10.4987844 <-- SPRD
 Delta: O_D= -0.2258829E-08 O_OD= -0.7878729E-08 O_TOT= -0.1013756E-07 <-- DLTA
 ------------------------------------------------------------------------------
 Cycle:     35
  WF centre and spread    1  (  0.000000, -0.000000,  0.000005 )     1.62274734
  WF centre and spread    2  (  0.000000,  0.000000, -0.000005 )     2.95866990
  WF centre and spread    3  ( -0.000000,  0.000000,  0.000000 )     2.95868358
  WF centre and spread    4  (  0.000000,  0.000000,  0.000000 )     2.95868355
  Sum of centres and spreads ( -0.000000,  0.000000, -0.000000 )    10.49878438
 
     35    -0.600E-08     0.0000519785       10.4987843791       0.23  <-- CONV
        O_D=      0.0000000 O_OD=      3.2984012 O_TOT=     10.4987844 <-- SPRD
 Delta: O_D= -0.3186240E-10 O_OD= -0.5966881E-08 O_TOT= -0.5998743E-08 <-- DLTA
 ------------------------------------------------------------------------------
 Cycle:     36
  WF centre and spread    1  (  0.000000, -0.000000,  0.000005 )     1.62274854
  WF centre and spread    2  (  0.000000,  0.000000, -0.000006 )     2.95867350
  WF centre and spread    3  ( -0.000000,  0.000000,  0.000000 )     2.95868118
  WF centre and spread    4  (  0.000000,  0.000000,  0.000000 )     2.95868115
  Sum of centres and spreads ( -0.000000,  0.000000, -0.000000 )    10.49878437
 
     36    -0.738E-08     0.0000608161       10.4987843717       0.23  <-- CONV
        O_D=      0.0000000 O_OD=      3.2984012 O_TOT=     10.4987844 <-- SPRD
 Delta: O_D= -0.5855476E-09 O_OD= -0.6793048E-08 O_TOT= -0.7378596E-08 <-- DLTA
 ------------------------------------------------------------------------------
 Cycle:     37
  WF centre and spread    1  (  0.000000, -0.000000,  0.000007 )     1.62274797
  WF centre and spread    2  (  0.000000,  0.000000, -0.000008 )     2.95867972
  WF centre and spread    3  ( -0.000000,  0.000000,  0.000000 )     2.95867835
  WF centre and spread    4  (  0.000000,  0.000000,  0.000000 )     2.95867832
  Sum of centres and spreads ( -0.000000,  0.000000, -0.000000 )    10.49878436
 
     37    -0.159E-07     0.0000491930       10.4987843558       0.24  <-- CONV
        O_D=      0.0000000 O_OD=      3.2984011 O_TOT=     10.4987844 <-- SPRD
 Delta: O_D=  0.1366664E-08 O_OD= -0.1729768E-07 O_TOT= -0.1593102E-07 <-- DLTA
 ------------------------------------------------------------------------------
 Cycle:     38
  WF centre and spread    1  (  0.000000, -0.000000,  0.000008 )     1.62274750
  WF centre and spread    2  (  0.000000,  0.000000, -0.000008 )     2.95867894
  WF centre and spread    3  ( -0.000000,  0.000000,  0.000000 )     2.95867896
  WF centre and spread    4  (  0.000000,  0.000000,  0.000000 )     2.95867893
  Sum of centres and spreads ( -0.000000,  0.000000, -0.000000 )    10.49878435
 
     38    -0.988E-08     0.0000997203       10.4987843459       0.25  <-- CONV
        O_D=      0.0000000 O_OD=      3.2984011 O_TOT=     10.4987843 <-- SPRD
 Delta: O_D= -0.8580757E-09 O_OD= -0.9017637E-08 O_TOT= -0.9875713E-08 <-- DLTA
 ------------------------------------------------------------------------------
 Cycle:     39
  WF centre and spread    1  (  0.000000, -0.000000,  0.000008 )     1.62274680
  WF centre and spread    2  (  0.000000,  0.000000, -0.000009 )     2.95867734
  WF centre and spread    3  ( -0.000000,  0.000000,  0.000000 )     2.95868011
  WF centre and spread    4  (  0.000000,  0.000000,  0.000000 )     2.95868008
  Sum of centres and spreads ( -0.000000,  0.000000, -0.000000 )    10.49878434
 
     39    -0.392E-08     0.0000453752       10.4987843420       0.25  <-- CONV
        O_D=      0.0000000 O_OD=      3.2984011 O_TOT=     10.4987843 <-- SPRD
 Delta: O_D= -0.6324660E-11 O_OD= -0.3914476E-08 O_TOT= -0.3920801E-08 <-- DLTA
 ------------------------------------------------------------------------------
 Cycle:     40
  WF centre and spread    1  (  0.000000, -0.000000,  0.000012 )     1.62274397
  WF centre and spread    2  (  0.000000,  0.000000, -0.000013 )     2.95866827
  WF centre and spread    3  ( -0.000000,  0.000000,  0.000000 )     2.95868606
  WF centre and spread    4  (  0.000000,  0.000000,  0.000000 )     2.95868603
  Sum of centres and spreads ( -0.000000,  0.000000, -0.000001 )    10.49878433
 
     40    -0.102E-07     0.0000493081       10.4987843317       0.26  <-- CONV
        O_D=      0.0000000 O_OD=      3.2984011 O_TOT=     10.4987843 <-- SPRD
 Delta: O_D=  0.8343544E-10 O_OD= -0.1033158E-07 O_TOT= -0.1024815E-07 <-- DLTA
 ------------------------------------------------------------------------------
 Cycle:     41
  WF centre and spread    1  (  0.000000, -0.000000,  0.000013 )     1.62274510
  WF centre and spread    2  (  0.000000,  0.000000, -0.000014 )     2.95866916
  WF centre and spread    3  ( -0.000000,  0.000000,  0.000000 )     2.95868505
  WF centre and spread    4  (  0.000000,  0.000000,  0.000000 )     2.95868502
  Sum of centres and spreads ( -0.000000,  0.000000, -0.000001 )    10.49878432
 
     41    -0.125E-07     0.0000973063       10.4987843192       0.27  <-- CONV
        O_D=      0.0000000 O_OD=      3.2984011 O_TOT=     10.4987843 <-- SPRD
 Delta: O_D=  0.1372651E-09 O_OD= -0.1261300E-07 O_TOT= -0.1247574E-07 <-- DLTA
 ------------------------------------------------------------------------------
 Cycle:     42
  WF centre and spread    1  (  0.000000, -0.000000,  0.000014 )     1.62274645
  WF centre and spread    2  (  0.000000,  0.000000, -0.000015 )     2.95867074
  WF centre and spread    3  ( -0.000000,  0.000000,  0.000000 )     2.95868358
  WF centre and spread    4  (  0.000000,  0.000000,  0.000000 )     2.95868355
  Sum of centres and spreads ( -0.000000,  0.000000, -0.000001 )    10.49878431
 
     42    -0.651E-08     0.0000596524       10.4987843127       0.27  <-- CONV
        O_D=      0.0000000 O_OD=      3.2984011 O_TOT=     10.4987843 <-- SPRD
 Delta: O_D= -0.1187086E-09 O_OD= -0.6390572E-08 O_TOT= -0.6509280E-08 <-- DLTA
 ------------------------------------------------------------------------------
 Cycle:     43
  WF centre and spread    1  (  0.000000, -0.000000,  0.000016 )     1.62274732
  WF centre and spread    2  (  0.000000,  0.000000, -0.000017 )     2.95867282
  WF centre and spread    3  ( -0.000000,  0.000000,  0.000000 )     2.95868210
  WF centre and spread    4  (  0.000000,  0.000000,  0.000000 )     2.95868207
  Sum of centres and spreads ( -0.000000,  0.000000, -0.000001 )    10.49878431
 
     43    -0.510E-08     0.0000501711       10.4987843076       0.28  <-- CONV
        O_D=      0.0000000 O_OD=      3.2984011 O_TOT=     10.4987843 <-- SPRD
 Delta: O_D= -0.4670482E-09 O_OD= -0.4636489E-08 O_TOT= -0.5103537E-08 <-- DLTA
 ------------------------------------------------------------------------------
 Cycle:     44
  WF centre and spread    1  (  0.000000, -0.000000,  0.000026 )     1.62274744
  WF centre and spread    2  (  0.000000,  0.000000, -0.000027 )     2.95868135
  WF centre and spread    3  ( -0.000000,  0.000000,  0.000000 )     2.95867777
  WF centre and spread    4  (  0.000000,  0.000000,  0.000000 )     2.95867774
  Sum of centres and spreads ( -0.000000,  0.000000, -0.000001 )    10.49878429
 
     44    -0.178E-07     0.0000460450       10.4987842898       0.29  <-- CONV
        O_D=      0.0000000 O_OD=      3.2984011 O_TOT=     10.4987843 <-- SPRD
 Delta: O_D= -0.8134946E-10 O_OD= -0.1771015E-07 O_TOT= -0.1779150E-07 <-- DLTA
 ------------------------------------------------------------------------------
 Cycle:     45
  WF centre and spread    1  (  0.000000, -0.000000,  0.000027 )     1.62274690
  WF centre and spread    2  (  0.000000,  0.000000, -0.000028 )     2.95868025
  WF centre and spread    3  ( -0.000000,  0.000000,  0.000000 )     2.95867857
  WF centre and spread    4  (  0.000000,  0.000000,  0.000000 )     2.95867854
  Sum of centres and spreads ( -0.000000,  0.000000, -0.000001 )    10.49878428
 
     45    -0.134E-07     0.0001054964       10.4987842764       0.29  <-- CONV
        O_D=      0.0000000 O_OD=      3.2984011 O_TOT=     10.4987843 <-- SPRD
 Delta: O_D= -0.6017728E-11 O_OD= -0.1340002E-07 O_TOT= -0.1340604E-07 <-- DLTA
 ------------------------------------------------------------------------------
 Cycle:     46
  WF centre and spread    1  (  0.000000, -0.000000,  0.000029 )     1.62274611
  WF centre and spread    2  (  0.000000,  0.000000, -0.000030 )     2.95867849
  WF centre and spread    3  ( -0.000000,  0.000000,  0.000000 )     2.95867985
  WF centre and spread    4  (  0.000000,  0.000000,  0.000000 )     2.95867982
  Sum of centres and spreads ( -0.000000,  0.000000, -0.000001 )    10.49878427
 
     46    -0.506E-08     0.0000511120       10.4987842714       0.30  <-- CONV
        O_D=      0.0000000 O_OD=      3.2984011 O_TOT=     10.4987843 <-- SPRD
 Delta: O_D=  0.2011642E-10 O_OD= -0.5084766E-08 O_TOT= -0.5064649E-08 <-- DLTA
 ------------------------------------------------------------------------------
 Cycle:     47
  WF centre and spread    1  (  0.000000, -0.000000,  0.000047 )     1.62274202
  WF centre and spread    2  (  0.000000,  0.000000, -0.000049 )     2.95866640
  WF centre and spread    3  ( -0.000000,  0.000000,  0.000000 )     2.95868794
  WF centre and spread    4  (  0.000000,  0.000000,  0.000000 )     2.95868791
  Sum of centres and spreads ( -0.000000,  0.000000, -0.000002 )    10.49878427
 
     47    -0.329E-08     0.0000411472       10.4987842681       0.30  <-- CONV
        O_D=      0.0000000 O_OD=      3.2984010 O_TOT=     10.4987843 <-- SPRD
 Delta: O_D=  0.5193787E-08 O_OD= -0.8481103E-08 O_TOT= -0.3287317E-08 <-- DLTA
 ------------------------------------------------------------------------------
 Cycle:     48
  WF centre and spread    1  (  0.000000, -0.000000,  0.000049 )     1.62274326
  WF centre and spread    2  (  0.000000,  0.000000, -0.000051 )     2.95866739
  WF centre and spread    3  ( -0.000000,  0.000000,  0.000000 )     2.95868682
  WF centre and spread    4  (  0.000000,  0.000000,  0.000000 )     2.95868679
  Sum of centres and spreads ( -0.000000,  0.000000, -0.000002 )    10.49878425
 
     48    -0.186E-07     0.0001363539       10.4987842495       0.31  <-- CONV
        O_D=      0.0000000 O_OD=      3.2984010 O_TOT=     10.4987842 <-- SPRD
 Delta: O_D= -0.3238880E-08 O_OD= -0.1537036E-07 O_TOT= -0.1860924E-07 <-- DLTA
 ------------------------------------------------------------------------------
 Cycle:     49
  WF centre and spread    1  (  0.000000, -0.000000,  0.000054 )     1.62274573
  WF centre and spread    2  (  0.000000,  0.000000, -0.000056 )     2.95866996
  WF centre and spread    3  ( -0.000000,  0.000000,  0.000000 )     2.95868429
  WF centre and spread    4  (  0.000000,  0.000000,  0.000000 )     2.95868426
  Sum of centres and spreads ( -0.000000,  0.000000, -0.000002 )    10.49878424
 
     49    -0.128E-07     0.0000832345       10.4987842366       0.32  <-- CONV
        O_D=      0.0000000 O_OD=      3.2984010 O_TOT=     10.4987842 <-- SPRD
 Delta: O_D= -0.1858073E-08 O_OD= -0.1097280E-07 O_TOT= -0.1283087E-07 <-- DLTA
 ------------------------------------------------------------------------------
 Cycle:     50
  WF centre and spread    1  (  0.000000, -0.000000,  0.000067 )     1.62274730
  WF centre and spread    2  (  0.000000,  0.000000, -0.000069 )     2.95867559
  WF centre and spread    3  ( -0.000000,  0.000000,  0.000000 )     2.95868069
  WF centre and spread    4  (  0.000000,  0.000000,  0.000000 )     2.95868066
  Sum of centres and spreads ( -0.000000,  0.000000, -0.000003 )    10.49878424
 
     50    -0.127E-08     0.0000504680       10.4987842354       0.32  <-- CONV
        O_D=      0.0000000 O_OD=      3.2984010 O_TOT=     10.4987842 <-- SPRD
 Delta: O_D=  0.9244491E-09 O_OD= -0.2195882E-08 O_TOT= -0.1271433E-08 <-- DLTA
 ------------------------------------------------------------------------------
 Cycle:     51
  WF centre and spread    1  (  0.000000, -0.000000,  0.000069 )     1.62274660
  WF centre and spread    2  (  0.000000,  0.000000, -0.000072 )     2.95867561
  WF centre and spread    3  ( -0.000000,  0.000000,  0.000000 )     2.95868102
  WF centre and spread    4  (  0.000000,  0.000000,  0.000000 )     2.95868099
  Sum of centres and spreads ( -0.000000,  0.000000, -0.000003 )    10.49878422
 
     51    -0.122E-07     0.0001066310       10.4987842232       0.33  <-- CONV
        O_D=      0.0000000 O_OD=      3.2984010 O_TOT=     10.4987842 <-- SPRD
 Delta: O_D= -0.4744223E-09 O_OD= -0.1172900E-07 O_TOT= -0.1220342E-07 <-- DLTA
 ------------------------------------------------------------------------------
 Cycle:     52
  WF centre and spread    1  (  0.000000, -0.000000,  0.000076 )     1.62274525
  WF centre and spread    2  (  0.000000,  0.000000, -0.000079 )     2.95867558
  WF centre and spread    3  ( -0.000000,  0.000000,  0.000000 )     2.95868171
  WF centre and spread    4  (  0.000000,  0.000000,  0.000000 )     2.95868168
  Sum of centres and spreads ( -0.000000,  0.000000, -0.000003 )    10.49878422
 
     52    -0.677E-08     0.0000576320       10.4987842164       0.34  <-- CONV
        O_D=      0.0000000 O_OD=      3.2984010 O_TOT=     10.4987842 <-- SPRD
 Delta: O_D=  0.2099191E-09 O_OD= -0.6977106E-08 O_TOT= -0.6767186E-08 <-- DLTA
 ------------------------------------------------------------------------------
 Cycle:     53
  WF centre and spread    1  (  0.000001, -0.000000,  0.000094 )     1.62274329
  WF centre and spread    2  (  0.000000,  0.000000, -0.000098 )     2.95867531
  WF centre and spread    3  ( -0.000001,  0.000000,  0.000000 )     2.95868282
  WF centre and spread    4  (  0.000000,  0.000000,  0.000000 )     2.95868279
  Sum of centres and spreads ( -0.000000,  0.000000, -0.000004 )    10.49878421
 
     53    -0.861E-08     0.0000598998       10.4987842078       0.34  <-- CONV
        O_D=      0.0000000 O_OD=      3.2984010 O_TOT=     10.4987842 <-- SPRD
 Delta: O_D=  0.1188949E-09 O_OD= -0.8725794E-08 O_TOT= -0.8606900E-08 <-- DLTA
 ------------------------------------------------------------------------------
 Cycle:     54
  WF centre and spread    1  (  0.000001, -0.000001,  0.000194 )     1.62273906
  WF centre and spread    2  (  0.000000,  0.000000, -0.000202 )     2.95867333
  WF centre and spread    3  ( -0.000001, -0.000000,  0.000000 )     2.95868591
  WF centre and spread    4  (  0.000000,  0.000001,  0.000000 )     2.95868588
  Sum of centres and spreads ( -0.000000,  0.000000, -0.000008 )    10.49878417
 
     54    -0.356E-07     0.0000827740       10.4987841722       0.35  <-- CONV
        O_D=      0.0000000 O_OD=      3.2984010 O_TOT=     10.4987842 <-- SPRD
 Delta: O_D=  0.1053138E-08 O_OD= -0.3669018E-07 O_TOT= -0.3563704E-07 <-- DLTA
 ------------------------------------------------------------------------------
 Cycle:     55
  WF centre and spread    1  (  0.000001, -0.000001,  0.000202 )     1.62274153
  WF centre and spread    2  (  0.000000,  0.000000, -0.000211 )     2.95867332
  WF centre and spread    3  ( -0.000001, -0.000000,  0.000000 )     2.95868465
  WF centre and spread    4  (  0.000000,  0.000001,  0.000000 )     2.95868462
  Sum of centres and spreads ( -0.000000,  0.000000, -0.000009 )    10.49878411
 
     55    -0.611E-07     0.0002185079       10.4987841111       0.36  <-- CONV
        O_D=      0.0000000 O_OD=      3.2984009 O_TOT=     10.4987841 <-- SPRD
 Delta: O_D=  0.1761548E-09 O_OD= -0.6125701E-07 O_TOT= -0.6108085E-07 <-- DLTA
 ------------------------------------------------------------------------------
 Cycle:     56
  WF centre and spread    1  (  0.000001, -0.000001,  0.000219 )     1.62274449
  WF centre and spread    2  (  0.000000,  0.000000, -0.000228 )     2.95867357
  WF centre and spread    3  ( -0.000001, -0.000000,  0.000000 )     2.95868302
  WF centre and spread    4  (  0.000000,  0.000001,  0.000000 )     2.95868299
  Sum of centres and spreads ( -0.000000,  0.000000, -0.000009 )    10.49878408
 
     56    -0.301E-07     0.0001297036       10.4987840809       0.36  <-- CONV
        O_D=      0.0000000 O_OD=      3.2984009 O_TOT=     10.4987841 <-- SPRD
 Delta: O_D= -0.6120818E-09 O_OD= -0.2953326E-07 O_TOT= -0.3014534E-07 <-- DLTA
 ------------------------------------------------------------------------------
 Cycle:     57
  WF centre and spread    1  (  0.000002, -0.000001,  0.000253 )     1.62274691
  WF centre and spread    2  (  0.000000,  0.000000, -0.000264 )     2.95867457
  WF centre and spread    3  ( -0.000002, -0.000000,  0.000000 )     2.95868131
  WF centre and spread    4  (  0.000000,  0.000001,  0.000000 )     2.95868128
  Sum of centres and spreads ( -0.000000,  0.000000, -0.000011 )    10.49878406
 
     57    -0.250E-07     0.0000954732       10.4987840559       0.37  <-- CONV
        O_D=      0.0000000 O_OD=      3.2984008 O_TOT=     10.4987841 <-- SPRD
 Delta: O_D=  0.1433123E-08 O_OD= -0.2643758E-07 O_TOT= -0.2500446E-07 <-- DLTA
 ------------------------------------------------------------------------------
 Cycle:     58
  WF centre and spread    1  (  0.000003, -0.000001,  0.000451 )     1.62275178
  WF centre and spread    2  (  0.000000, -0.000000, -0.000471 )     2.95868050
  WF centre and spread    3  ( -0.000003, -0.000000,  0.000000 )     2.95867585
  WF centre and spread    4  (  0.000000,  0.000001,  0.000000 )     2.95867582
  Sum of centres and spreads ( -0.000000,  0.000000, -0.000019 )    10.49878395
 
     58    -0.107E-06     0.0001272103       10.4987839494       0.38  <-- CONV
        O_D=      0.0000000 O_OD=      3.2984007 O_TOT=     10.4987839 <-- SPRD
 Delta: O_D=  0.7570737E-08 O_OD= -0.1141244E-06 O_TOT= -0.1065537E-06 <-- DLTA
 ------------------------------------------------------------------------------
 Cycle:     59
  WF centre and spread    1  (  0.000003, -0.000001,  0.000471 )     1.62274864
  WF centre and spread    2  (  0.000000, -0.000000, -0.000492 )     2.95868011
  WF centre and spread    3  ( -0.000003, -0.000000,  0.000000 )     2.95867753
  WF centre and spread    4  (  0.000000,  0.000001,  0.000000 )     2.95867750
  Sum of centres and spreads ( -0.000000,  0.000000, -0.000020 )    10.49878378
 
     59    -0.173E-06     0.0003713621       10.4987837760       0.38  <-- CONV
        O_D=      0.0000000 O_OD=      3.2984005 O_TOT=     10.4987838 <-- SPRD
 Delta: O_D=  0.5028950E-09 O_OD= -0.1739028E-06 O_TOT= -0.1733999E-06 <-- DLTA
 ------------------------------------------------------------------------------
 Cycle:     60
  WF centre and spread    1  (  0.000003, -0.000002,  0.000514 )     1.62274394
  WF centre and spread    2  (  0.000000, -0.000000, -0.000536 )     2.95867920
  WF centre and spread    3  ( -0.000003, -0.000000,  0.000000 )     2.95868028
  WF centre and spread    4  (  0.000000,  0.000002,  0.000000 )     2.95868025
  Sum of centres and spreads ( -0.000000,  0.000000, -0.000022 )    10.49878368
 
     60    -0.101E-06     0.0002328304       10.4987836751       0.39  <-- CONV
        O_D=      0.0000000 O_OD=      3.2984005 O_TOT=     10.4987837 <-- SPRD
 Delta: O_D= -0.2630213E-08 O_OD= -0.9819648E-07 O_TOT= -0.1008267E-06 <-- DLTA
 ------------------------------------------------------------------------------
 Cycle:     61
  WF centre and spread    1  (  0.000004, -0.000002,  0.000669 )     1.62273509
  WF centre and spread    2  (  0.000000, -0.000000, -0.000697 )     2.95867550
  WF centre and spread    3  ( -0.000004, -0.000000,  0.000000 )     2.95868646
  WF centre and spread    4  (  0.000000,  0.000002,  0.000000 )     2.95868643
  Sum of centres and spreads ( -0.000000,  0.000000, -0.000029 )    10.49878348
 
     61    -0.192E-06     0.0002136231       10.4987834835       0.40  <-- CONV
        O_D=      0.0000000 O_OD=      3.2984002 O_TOT=     10.4987835 <-- SPRD
 Delta: O_D=  0.1255145E-07 O_OD= -0.2041922E-06 O_TOT= -0.1916407E-06 <-- DLTA
 ------------------------------------------------------------------------------
 Cycle:     62
  WF centre and spread    1  (  0.000004, -0.000002,  0.000697 )     1.62273862
  WF centre and spread    2  (  0.000000, -0.000000, -0.000727 )     2.95867485
  WF centre and spread    3  ( -0.000004, -0.000000,  0.000000 )     2.95868493
  WF centre and spread    4  (  0.000000,  0.000002,  0.000000 )     2.95868490
  Sum of centres and spreads ( -0.000000,  0.000000, -0.000030 )    10.49878331
 
     62    -0.177E-06     0.0003834469       10.4987833063       0.40  <-- CONV
        O_D=      0.0000000 O_OD=      3.2984001 O_TOT=     10.4987833 <-- SPRD
 Delta: O_D= -0.2419507E-08 O_OD= -0.1748108E-06 O_TOT= -0.1772303E-06 <-- DLTA
 ------------------------------------------------------------------------------
 Cycle:     63
  WF centre and spread    1  (  0.000005, -0.000003,  0.000837 )     1.62275146
  WF centre and spread    2  (  0.000000, -0.000000, -0.000873 )     2.95867282
  WF centre and spread    3  ( -0.000005, -0.000000,  0.000000 )     2.95867937
  WF centre and spread    4  (  0.000000,  0.000003,  0.000000 )     2.95867934
  Sum of centres and spreads ( -0.000000,  0.000000, -0.000036 )    10.49878299
 
     63    -0.321E-06     0.0002936989       10.4987829856       0.41  <-- CONV
        O_D=      0.0000000 O_OD=      3.2983997 O_TOT=     10.4987830 <-- SPRD
 Delta: O_D=  0.7089682E-08 O_OD= -0.3277245E-06 O_TOT= -0.3206348E-06 <-- DLTA
 ------------------------------------------------------------------------------
 Cycle:     64
  WF centre and spread    1  (  0.000007, -0.000004,  0.001179 )     1.62276346
  WF centre and spread    2  (  0.000000, -0.000000, -0.001229 )     2.95867188
  WF centre and spread    3  ( -0.000008, -0.000000,  0.000000 )     2.95867357
  WF centre and spread    4  (  0.000000,  0.000004,  0.000000 )     2.95867354
  Sum of centres and spreads ( -0.000000,  0.000000, -0.000050 )    10.49878245
 
     64    -0.534E-06     0.0003794466       10.4987824517       0.41  <-- CONV
        O_D=      0.0000001 O_OD=      3.2983992 O_TOT=     10.4987825 <-- SPRD
 Delta: O_D=  0.5191981E-07 O_OD= -0.5858784E-06 O_TOT= -0.5339586E-06 <-- DLTA
 ------------------------------------------------------------------------------
 Cycle:     65
  WF centre and spread    1  (  0.000007, -0.000004,  0.001226 )     1.62275538
  WF centre and spread    2  (  0.000000, -0.000000, -0.001279 )     2.95867331
  WF centre and spread    3  ( -0.000008, -0.000000,  0.000000 )     2.95867652
  WF centre and spread    4  (  0.000000,  0.000004,  0.000000 )     2.95867649
  Sum of centres and spreads ( -0.000000,  0.000000, -0.000052 )    10.49878170
 
     65    -0.752E-06     0.0008078658       10.4987817000       0.42  <-- CONV
        O_D=      0.0000001 O_OD=      3.2983984 O_TOT=     10.4987817 <-- SPRD
 Delta: O_D= -0.1941960E-07 O_OD= -0.7322549E-06 O_TOT= -0.7516745E-06 <-- DLTA
 ------------------------------------------------------------------------------
 Cycle:     66
  WF centre and spread    1  (  0.000009, -0.000004,  0.001419 )     1.62273293
  WF centre and spread    2  (  0.000000, -0.000000, -0.001480 )     2.95867720
  WF centre and spread    3  ( -0.000009, -0.000000,  0.000000 )     2.95868533
  WF centre and spread    4  (  0.000000,  0.000004,  0.000000 )     2.95868530
  Sum of centres and spreads ( -0.000000,  0.000000, -0.000061 )    10.49878075
 
     66    -0.946E-06     0.0005580672       10.4987807543       0.43  <-- CONV
        O_D=      0.0000001 O_OD=      3.2983975 O_TOT=     10.4987808 <-- SPRD
 Delta: O_D=  0.1925560E-07 O_OD= -0.9649826E-06 O_TOT= -0.9457270E-06 <-- DLTA
 ------------------------------------------------------------------------------
 Cycle:     67
  WF centre and spread    1  (  0.000011, -0.000005,  0.001743 )     1.62272006
  WF centre and spread    2  (  0.000000, -0.000000, -0.001818 )     2.95867764
  WF centre and spread    3  ( -0.000011, -0.000000,  0.000000 )     2.95869107
  WF centre and spread    4  (  0.000000,  0.000005,  0.000000 )     2.95869105
  Sum of centres and spreads ( -0.000000,  0.000000, -0.000074 )    10.49877981
 
     67    -0.946E-06     0.0006006175       10.4987798082       0.43  <-- CONV
        O_D=      0.0000001 O_OD=      3.2983965 O_TOT=     10.4987798 <-- SPRD
 Delta: O_D=  0.6336027E-07 O_OD= -0.1009482E-05 O_TOT= -0.9461213E-06 <-- DLTA
 ------------------------------------------------------------------------------
 Cycle:     68
  WF centre and spread    1  (  0.000011, -0.000005,  0.001747 )     1.62271999
  WF centre and spread    2  (  0.000000, -0.000000, -0.001822 )     2.95867761
  WF centre and spread    3  ( -0.000011, -0.000000,  0.000000 )     2.95869110
  WF centre and spread    4  (  0.000000,  0.000005,  0.000000 )     2.95869108
  Sum of centres and spreads ( -0.000000,  0.000000, -0.000075 )    10.49877979
 
     68    -0.227E-07     0.0009889732       10.4987797855       0.44  <-- CONV
        O_D=      0.0000001 O_OD=      3.2983964 O_TOT=     10.4987798 <-- SPRD
 Delta: O_D=  0.6009107E-09 O_OD= -0.2326218E-07 O_TOT= -0.2266127E-07 <-- DLTA
 ------------------------------------------------------------------------------
 Cycle:     69
  WF centre and spread    1  (  0.000041, -0.000020,  0.006739 )     1.62274108
  WF centre and spread    2  (  0.000000, -0.000000, -0.007029 )     2.95861643
  WF centre and spread    3  ( -0.000043, -0.000000,  0.000001 )     2.95869967
  WF centre and spread    4  (  0.000000,  0.000021,  0.000001 )     2.95870118
  Sum of centres and spreads ( -0.000002,  0.000001, -0.000288 )    10.49875836
 
     69    -0.214E-04     0.0009913864       10.4987583569       0.44  <-- CONV
        O_D=      0.0000275 O_OD=      3.2983476 O_TOT=     10.4987584 <-- SPRD
 Delta: O_D=  0.2738085E-04 O_OD= -0.4880944E-04 O_TOT= -0.2142860E-04 <-- DLTA
 ------------------------------------------------------------------------------
 Cycle:     70
  WF centre and spread    1  (  0.000042, -0.000021,  0.006907 )     1.62273248
  WF centre and spread    2  (  0.000000, -0.000000, -0.007204 )     2.95858735
  WF centre and spread    3  ( -0.000044, -0.000000,  0.000001 )     2.95868962
  WF centre and spread    4  (  0.000000,  0.000022,  0.000001 )     2.95868962
  Sum of centres and spreads ( -0.000002,  0.000001, -0.000295 )    10.49869907
 
     70    -0.593E-04     0.0091528387       10.4986990704       0.45  <-- CONV
        O_D=      0.0000007 O_OD=      3.2983152 O_TOT=     10.4986991 <-- SPRD
 Delta: O_D= -0.2683200E-04 O_OD= -0.3245449E-04 O_TOT= -0.5928650E-04 <-- DLTA
 ------------------------------------------------------------------------------
 Cycle:     71
  WF centre and spread    1  (  0.000047, -0.000023,  0.007714 )     1.62272703
  WF centre and spread    2  (  0.000000, -0.000000, -0.008046 )     2.95858100
  WF centre and spread    3  ( -0.000049, -0.000000,  0.000001 )     2.95868890
  WF centre and spread    4  (  0.000000,  0.000024,  0.000001 )     2.95868901
  Sum of centres and spreads ( -0.000002,  0.000001, -0.000330 )    10.49868593
 
     71    -0.131E-04     0.0020383613       10.4986859337       0.46  <-- CONV
        O_D=      0.0000028 O_OD=      3.2982999 O_TOT=     10.4986859 <-- SPRD
 Delta: O_D=  0.2102114E-05 O_OD= -0.1523881E-04 O_TOT= -0.1313670E-04 <-- DLTA
 ------------------------------------------------------------------------------
 Cycle:     72
  WF centre and spread    1  (  0.000049, -0.000024,  0.007971 )     1.62272480
  WF centre and spread    2  (  0.000000, -0.000000, -0.008314 )     2.95857225
  WF centre and spread    3  ( -0.000051, -0.000000,  0.000001 )     2.95868689
  WF centre and spread    4  (  0.000000,  0.000025,  0.000001 )     2.95868690
  Sum of centres and spreads ( -0.000002,  0.000001, -0.000341 )    10.49867085
 
     72    -0.151E-04     0.0039961967       10.4986708459       0.46  <-- CONV
        O_D=      0.0000009 O_OD=      3.2982867 O_TOT=     10.4986708 <-- SPRD
 Delta: O_D= -0.1865364E-05 O_OD= -0.1322244E-04 O_TOT= -0.1508780E-04 <-- DLTA
 ------------------------------------------------------------------------------
 Cycle:     73
  WF centre and spread    1  (  0.000146, -0.000072,  0.023953 )     1.62268130
  WF centre and spread    2  (  0.000000, -0.000000, -0.024984 )     2.95818458
  WF centre and spread    3  ( -0.000153, -0.000000,  0.000004 )     2.95877632
  WF centre and spread    4  (  0.000000,  0.000075,  0.000004 )     2.95879327
  Sum of centres and spreads ( -0.000006,  0.000003, -0.001023 )    10.49843547
 
     73    -0.235E-03     0.0023512599       10.4984354685       0.47  <-- CONV
        O_D=      0.0003270 O_OD=      3.2977252 O_TOT=     10.4984355 <-- SPRD
 Delta: O_D=  0.3260938E-03 O_OD= -0.5614711E-03 O_TOT= -0.2353774E-03 <-- DLTA
 ------------------------------------------------------------------------------
 Cycle:     74
  WF centre and spread    1  (  0.000150, -0.000074,  0.024556 )     1.62258957
  WF centre and spread    2  (  0.000000, -0.000000, -0.025613 )     2.95780851
  WF centre and spread    3  ( -0.000157, -0.000000,  0.000004 )     2.95865705
  WF centre and spread    4  (  0.000000,  0.000077,  0.000004 )     2.95865741
  Sum of centres and spreads ( -0.000006,  0.000003, -0.001049 )    10.49771254
 
     74    -0.723E-03     0.0318064053       10.4977125412       0.48  <-- CONV
        O_D=      0.0000094 O_OD=      3.2973200 O_TOT=     10.4977125 <-- SPRD
 Delta: O_D= -0.3176664E-03 O_OD= -0.4052609E-03 O_TOT= -0.7229273E-03 <-- DLTA
 ------------------------------------------------------------------------------
 Cycle:     75
  WF centre and spread    1  (  0.000166, -0.000082,  0.027205 )     1.62256216
  WF centre and spread    2  (  0.000000, -0.000000, -0.028375 )     2.95761573
  WF centre and spread    3  ( -0.000173, -0.000000,  0.000004 )     2.95868710
  WF centre and spread    4  (  0.000000,  0.000085,  0.000004 )     2.95868847
  Sum of centres and spreads ( -0.000007,  0.000003, -0.001162 )    10.49755345
 
     75    -0.159E-03     0.0073959178       10.4975534505       0.48  <-- CONV
        O_D=      0.0000302 O_OD=      3.2971400 O_TOT=     10.4975535 <-- SPRD
 Delta: O_D=  0.2088410E-04 O_OD= -0.1799748E-03 O_TOT= -0.1590907E-03 <-- DLTA
 ------------------------------------------------------------------------------
 Cycle:     76
  WF centre and spread    1  (  0.000172, -0.000085,  0.028162 )     1.62253215
  WF centre and spread    2  (  0.000000, -0.000000, -0.029373 )     2.95749166
  WF centre and spread    3  ( -0.000180, -0.000000,  0.000004 )     2.95867509
  WF centre and spread    4  (  0.000000,  0.000088,  0.000004 )     2.95867559
  Sum of centres and spreads ( -0.000007,  0.000004, -0.001202 )    10.49737449
 
     76    -0.179E-03     0.0133851226       10.4973744940       0.49  <-- CONV
        O_D=      0.0000130 O_OD=      3.2969783 O_TOT=     10.4973745 <-- SPRD
 Delta: O_D= -0.1721257E-04 O_OD= -0.1617439E-03 O_TOT= -0.1789565E-03 <-- DLTA
 ------------------------------------------------------------------------------
 Cycle:     77
  WF centre and spread    1  (  0.000376, -0.000185,  0.061535 )     1.62229360
  WF centre and spread    2  (  0.000000, -0.000000, -0.064178 )     2.95433120
  WF centre and spread    3  ( -0.000393, -0.000000,  0.000011 )     2.95946256
  WF centre and spread    4  (  0.000000,  0.000193,  0.000011 )     2.95953018
  Sum of centres and spreads ( -0.000016,  0.000008, -0.002621 )    10.49561753
 
     77    -0.176E-02     0.0085305771       10.4956175344       0.50  <-- CONV
        O_D=      0.0014110 O_OD=      3.2938233 O_TOT=     10.4956175 <-- SPRD
 Delta: O_D=  0.1398015E-02 O_OD= -0.3154974E-02 O_TOT= -0.1756960E-02 <-- DLTA
 ------------------------------------------------------------------------------
 Cycle:     78
  WF centre and spread    1  (  0.000386, -0.000190,  0.063201 )     1.62169338
  WF centre and spread    2  (  0.000000, -0.000000, -0.065911 )     2.95250098
  WF centre and spread    3  ( -0.000403, -0.000000,  0.000010 )     2.95878474
  WF centre and spread    4  (  0.000000,  0.000199,  0.000010 )     2.95878875
  Sum of centres and spreads ( -0.000016,  0.000008, -0.002690 )    10.49176785
 
     78    -0.385E-02     0.0705808824       10.4917678531       0.50  <-- CONV
        O_D=      0.0000962 O_OD=      3.2912885 O_TOT=     10.4917679 <-- SPRD
 Delta: O_D= -0.1314862E-02 O_OD= -0.2534819E-02 O_TOT= -0.3849681E-02 <-- DLTA
 ------------------------------------------------------------------------------
 Cycle:     79
  WF centre and spread    1  (  0.000417, -0.000205,  0.068190 )     1.62158447
  WF centre and spread    2  (  0.000001, -0.000000, -0.071112 )     2.95160412
  WF centre and spread    3  ( -0.000435, -0.000000,  0.000011 )     2.95881503
  WF centre and spread    4  (  0.000000,  0.000214,  0.000011 )     2.95881950
  Sum of centres and spreads ( -0.000018,  0.000009, -0.002900 )    10.49082312
 
     79    -0.945E-03     0.0213557316       10.4908231192       0.51  <-- CONV
        O_D=      0.0001098 O_OD=      3.2903301 O_TOT=     10.4908231 <-- SPRD
 Delta: O_D=  0.1366418E-04 O_OD= -0.9583980E-03 O_TOT= -0.9447339E-03 <-- DLTA
 ------------------------------------------------------------------------------
 Cycle:     80
  WF centre and spread    1  (  0.000417, -0.000205,  0.068264 )     1.62158213
  WF centre and spread    2  (  0.000001, -0.000000, -0.071189 )     2.95158904
  WF centre and spread    3  ( -0.000436, -0.000000,  0.000011 )     2.95881500
  WF centre and spread    4  (  0.000000,  0.000214,  0.000011 )     2.95881947
  Sum of centres and spreads ( -0.000018,  0.000009, -0.002904 )    10.49080564
 
     80    -0.175E-04     0.0274643533       10.4908056413       0.51  <-- CONV
        O_D=      0.0001098 O_OD=      3.2903127 O_TOT=     10.4908056 <-- SPRD
 Delta: O_D= -0.9010887E-07 O_OD= -0.1738780E-04 O_TOT= -0.1747791E-04 <-- DLTA
 ------------------------------------------------------------------------------
 Cycle:     81
  WF centre and spread    1  (  0.000598, -0.000294,  0.097718 )     1.62074285
  WF centre and spread    2  (  0.000002, -0.000001, -0.101884 )     2.94587619
  WF centre and spread    3  ( -0.000625, -0.000000,  0.000014 )     2.95950942
  WF centre and spread    4  (  0.000000,  0.000308,  0.000014 )     2.95959960
  Sum of centres and spreads ( -0.000025,  0.000013, -0.004137 )    10.48572806
 
     81    -0.508E-02     0.0274805594       10.4857280629       0.52  <-- CONV
        O_D=      0.0020136 O_OD=      3.2833312 O_TOT=     10.4857281 <-- SPRD
 Delta: O_D=  0.1903895E-02 O_OD= -0.6981473E-02 O_TOT= -0.5077578E-02 <-- DLTA
 ------------------------------------------------------------------------------
 Cycle:     82
  WF centre and spread    1  (  0.000614, -0.000302,  0.100320 )     1.62009722
  WF centre and spread    2  (  0.000002, -0.000001, -0.104596 )     2.94328092
  WF centre and spread    3  ( -0.000642, -0.000000,  0.000016 )     2.95873659
  WF centre and spread    4  (  0.000000,  0.000316,  0.000016 )     2.95874194
  Sum of centres and spreads ( -0.000026,  0.000013, -0.004245 )    10.48085666
 
     82    -0.487E-02     0.0795444989       10.4808566610       0.53  <-- CONV
        O_D=      0.0001491 O_OD=      3.2803243 O_TOT=     10.4808567 <-- SPRD
 Delta: O_D= -0.1864548E-02 O_OD= -0.3006854E-02 O_TOT= -0.4871402E-02 <-- DLTA
 ------------------------------------------------------------------------------
 Cycle:     83
  WF centre and spread    1  (  0.000740, -0.000364,  0.120865 )     1.61963351
  WF centre and spread    2  (  0.000003, -0.000001, -0.125996 )     2.93774176
  WF centre and spread    3  ( -0.000775, -0.000000,  0.000020 )     2.95951396
  WF centre and spread    4  (  0.000000,  0.000381,  0.000020 )     2.95954949
  Sum of centres and spreads ( -0.000031,  0.000015, -0.005091 )    10.47643872
 
     83    -0.442E-02     0.0290192488       10.4764387177       0.53  <-- CONV
        O_D=      0.0008820 O_OD=      3.2751735 O_TOT=     10.4764387 <-- SPRD
 Delta: O_D=  0.7328793E-03 O_OD= -0.5150823E-02 O_TOT= -0.4417943E-02 <-- DLTA
 ------------------------------------------------------------------------------
 Cycle:     84
  WF centre and spread    1  (  0.000764, -0.000376,  0.124761 )     1.61866361
  WF centre and spread    2  (  0.000003, -0.000002, -0.130050 )     2.93478435
  WF centre and spread    3  ( -0.000800, -0.000000,  0.000020 )     2.95882707
  WF centre and spread    4  (  0.000000,  0.000394,  0.000020 )     2.95883675
  Sum of centres and spreads ( -0.000033,  0.000016, -0.005249 )    10.47111177
 
     84    -0.533E-02     0.0752573273       10.4711117693       0.54  <-- CONV
        O_D=      0.0002716 O_OD=      3.2704569 O_TOT=     10.4711118 <-- SPRD
 Delta: O_D= -0.6103590E-03 O_OD= -0.4716589E-02 O_TOT= -0.5326948E-02 <-- DLTA
 ------------------------------------------------------------------------------
 Cycle:     85
  WF centre and spread    1  (  0.000932, -0.000459,  0.151986 )     1.61792930
  WF centre and spread    2  (  0.000006, -0.000003, -0.158380 )     2.92552252
  WF centre and spread    3  ( -0.000978, -0.000000,  0.000023 )     2.96020269
  WF centre and spread    4  (  0.000000,  0.000481,  0.000023 )     2.96030246
[...]
 ------------------------------------------------------------------------------
 Cycle:    277
  WF centre and spread    1  (  0.319335, -0.212071,  0.520267 )     2.27844141
  WF centre and spread    2  (  0.318468, -0.209967, -0.521899 )     2.27806237
  WF centre and spread    3  ( -0.602734, -0.258572,  0.000150 )     2.24229608
  WF centre and spread    4  ( -0.023204,  0.662333,  0.001539 )     2.21687498
  Sum of centres and spreads (  0.011864, -0.018276,  0.000057 )     9.01567485
 
    277    -0.628E-04     0.0044393654        9.0156747806       1.80  <-- CONV
        O_D=      0.0026572 O_OD=      1.8126344 O_TOT=      9.0156748 <-- SPRD
 Delta: O_D=  0.7586219E-05 O_OD= -0.7035857E-04 O_TOT= -0.6277235E-04 <-- DLTA
 ------------------------------------------------------------------------------
 Cycle:    278
  WF centre and spread    1  (  0.319973, -0.211019,  0.520344 )     2.27782482
  WF centre and spread    2  (  0.319090, -0.208866, -0.522059 )     2.27764749
  WF centre and spread    3  ( -0.601815, -0.260596,  0.000147 )     2.24285198
  WF centre and spread    4  ( -0.025570,  0.662273,  0.001579 )     2.21726915
  Sum of centres and spreads (  0.011678, -0.018207,  0.000010 )     9.01559344
 
    278    -0.814E-04     0.0057381341        9.0155933746       1.80  <-- CONV
        O_D=      0.0026465 O_OD=      1.8125636 O_TOT=      9.0155934 <-- SPRD
 Delta: O_D= -0.1062960E-04 O_OD= -0.7077645E-04 O_TOT= -0.8140605E-04 <-- DLTA
 ------------------------------------------------------------------------------
 Cycle:    279
  WF centre and spread    1  (  0.320736, -0.209798,  0.520437 )     2.27744243
  WF centre and spread    2  (  0.319857, -0.207604, -0.522189 )     2.27733744
  WF centre and spread    3  ( -0.600719, -0.262949,  0.000128 )     2.24328918
  WF centre and spread    4  ( -0.028361,  0.662193,  0.001607 )     2.21744033
  Sum of centres and spreads (  0.011513, -0.018157, -0.000017 )     9.01550939
 
    279    -0.841E-04     0.0056959130        9.0155093187       1.81  <-- CONV
        O_D=      0.0026555 O_OD=      1.8124706 O_TOT=      9.0155093 <-- SPRD
 Delta: O_D=  0.8915468E-05 O_OD= -0.9297139E-04 O_TOT= -0.8405593E-04 <-- DLTA
 ------------------------------------------------------------------------------
 Cycle:    280
  WF centre and spread    1  (  0.320805, -0.209725,  0.520451 )     2.27758622
  WF centre and spread    2  (  0.319942, -0.207541, -0.522167 )     2.27737042
  WF centre and spread    3  ( -0.600630, -0.263106,  0.000118 )     2.24319479
  WF centre and spread    4  ( -0.028566,  0.662182,  0.001599 )     2.21727332
  Sum of centres and spreads (  0.011551, -0.018190,  0.000001 )     9.01542475
 
    280    -0.846E-04     0.0075091209        9.0154246816       1.82  <-- CONV
        O_D=      0.0026450 O_OD=      1.8123965 O_TOT=      9.0154247 <-- SPRD
 Delta: O_D= -0.1047170E-04 O_OD= -0.7416535E-04 O_TOT= -0.8463705E-04 <-- DLTA
 ------------------------------------------------------------------------------
 Cycle:    281
  WF centre and spread    1  (  0.320982, -0.209520,  0.520477 )     2.27799133
  WF centre and spread    2  (  0.320155, -0.207355, -0.522108 )     2.27752675
  WF centre and spread    3  ( -0.600400, -0.263532,  0.000093 )     2.24296610
  WF centre and spread    4  ( -0.029120,  0.662162,  0.001578 )     2.21685569
  Sum of centres and spreads (  0.011618, -0.018245,  0.000041 )     9.01533987
 
    281    -0.849E-04     0.0057662621        9.0153398023       1.82  <-- CONV
        O_D=      0.0026540 O_OD=      1.8123026 O_TOT=      9.0153398 <-- SPRD
 Delta: O_D=  0.9031371E-05 O_OD= -0.9391070E-04 O_TOT= -0.8487933E-04 <-- DLTA
 ------------------------------------------------------------------------------
 Cycle:    282
  WF centre and spread    1  (  0.321189, -0.209244,  0.520492 )     2.27844896
  WF centre and spread    2  (  0.320399, -0.207095, -0.522036 )     2.27775897
  WF centre and spread    3  ( -0.600124, -0.264075,  0.000067 )     2.24269786
  WF centre and spread    4  ( -0.029819,  0.662150,  0.001559 )     2.21636662
  Sum of centres and spreads (  0.011645, -0.018263,  0.000083 )     9.01527242
 
    282    -0.674E-04     0.0059043568        9.0152723535       1.83  <-- CONV
        O_D=      0.0026444 O_OD=      1.8122448 O_TOT=      9.0152724 <-- SPRD
 Delta: O_D= -0.9635823E-05 O_OD= -0.5781293E-04 O_TOT= -0.6744876E-04 <-- DLTA
 ------------------------------------------------------------------------------
 Cycle:    283
  WF centre and spread    1  (  0.321366, -0.208973,  0.520494 )     2.27872466
  WF centre and spread    2  (  0.320598, -0.206829, -0.521987 )     2.27793940
  WF centre and spread    3  ( -0.599883, -0.264583,  0.000052 )     2.24253305
  WF centre and spread    4  ( -0.030462,  0.662146,  0.001551 )     2.21603651
  Sum of centres and spreads (  0.011619, -0.018239,  0.000110 )     9.01523363
 
    283    -0.388E-04     0.0046277857        9.0152335575       1.84  <-- CONV
        O_D=      0.0026430 O_OD=      1.8122073 O_TOT=      9.0152336 <-- SPRD
 Delta: O_D= -0.1368797E-05 O_OD= -0.3742726E-04 O_TOT= -0.3879606E-04 <-- DLTA
 ------------------------------------------------------------------------------
 Cycle:    284
  WF centre and spread    1  (  0.321678, -0.208465,  0.520502 )     2.27890290
  WF centre and spread    2  (  0.320932, -0.206318, -0.521955 )     2.27810164
  WF centre and spread    3  ( -0.599444, -0.265529,  0.000038 )     2.24245867
  WF centre and spread    4  ( -0.031625,  0.662132,  0.001552 )     2.21572519
  Sum of centres and spreads (  0.011542, -0.018180,  0.000137 )     9.01518840
 
    284    -0.452E-04     0.0037944748        9.0151883347       1.84  <-- CONV
        O_D=      0.0026412 O_OD=      1.8121639 O_TOT=      9.0151883 <-- SPRD
 Delta: O_D= -0.1768315E-05 O_OD= -0.4345445E-04 O_TOT= -0.4522277E-04 <-- DLTA
 ------------------------------------------------------------------------------
 Cycle:    285
  WF centre and spread    1  (  0.322287, -0.207492,  0.520564 )     2.27884881
  WF centre and spread    2  (  0.321566, -0.205324, -0.521987 )     2.27811319
  WF centre and spread    3  ( -0.598568, -0.267371,  0.000018 )     2.24263616
  WF centre and spread    4  ( -0.033853,  0.662064,  0.001566 )     2.21552070
  Sum of centres and spreads (  0.011431, -0.018124,  0.000160 )     9.01511886
 
    285    -0.695E-04     0.0045520075        9.0151187959       1.85  <-- CONV
        O_D=      0.0026540 O_OD=      1.8120816 O_TOT=      9.0151188 <-- SPRD
 Delta: O_D=  0.1272636E-04 O_OD= -0.8226515E-04 O_TOT= -0.6953879E-04 <-- DLTA
 ------------------------------------------------------------------------------
 Cycle:    286
  WF centre and spread    1  (  0.322333, -0.207430,  0.520588 )     2.27869743
  WF centre and spread    2  (  0.321608, -0.205257, -0.522024 )     2.27797976
  WF centre and spread    3  ( -0.598495, -0.267505,  0.000018 )     2.24274183
  WF centre and spread    4  ( -0.034000,  0.662044,  0.001570 )     2.21563005
  Sum of centres and spreads (  0.011446, -0.018148,  0.000151 )     9.01504908
 
    286    -0.698E-04     0.0079137253        9.0150490080       1.86  <-- CONV
        O_D=      0.0026385 O_OD=      1.8120273 O_TOT=      9.0150490 <-- SPRD
 Delta: O_D= -0.1542932E-04 O_OD= -0.5435863E-04 O_TOT= -0.6978795E-04 <-- DLTA
 ------------------------------------------------------------------------------
 Cycle:    287
  WF centre and spread    1  (  0.322449, -0.207262,  0.520634 )     2.27838756
  WF centre and spread    2  (  0.321716, -0.205076, -0.522105 )     2.27772416
  WF centre and spread    3  ( -0.598314, -0.267854,  0.000019 )     2.24299918
  WF centre and spread    4  ( -0.034390,  0.662001,  0.001581 )     2.21589181
  Sum of centres and spreads (  0.011461, -0.018190,  0.000129 )     9.01500271
 
    287    -0.464E-04     0.0045909621        9.0150026445       1.86  <-- CONV
        O_D=      0.0026387 O_OD=      1.8119808 O_TOT=      9.0150026 <-- SPRD
 Delta: O_D=  0.1251608E-06 O_OD= -0.4648860E-04 O_TOT= -0.4636344E-04 <-- DLTA
 ------------------------------------------------------------------------------
 Cycle:    288
  WF centre and spread    1  (  0.322644, -0.206946,  0.520680 )     2.27800137
  WF centre and spread    2  (  0.321900, -0.204741, -0.522200 )     2.27744181
  WF centre and spread    3  ( -0.598015, -0.268469,  0.000021 )     2.24331858
  WF centre and spread    4  ( -0.035097,  0.661952,  0.001599 )     2.21620049
  Sum of centres and spreads (  0.011432, -0.018204,  0.000101 )     9.01496226
 
    288    -0.405E-04     0.0038567414        9.0149621909       1.87  <-- CONV
        O_D=      0.0026391 O_OD=      1.8119399 O_TOT=      9.0149622 <-- SPRD
 Delta: O_D=  0.4111579E-06 O_OD= -0.4086475E-04 O_TOT= -0.4045359E-04 <-- DLTA
 ------------------------------------------------------------------------------
 Cycle:    289
  WF centre and spread    1  (  0.323089, -0.206186,  0.520751 )     2.27734803
  WF centre and spread    2  (  0.322325, -0.203938, -0.522359 )     2.27700608
  WF centre and spread    3  ( -0.597332, -0.269907,  0.000023 )     2.24385488
  WF centre and spread    4  ( -0.036779,  0.661864,  0.001637 )     2.21668183
  Sum of centres and spreads (  0.011304, -0.018167,  0.000051 )     9.01489081
 
    289    -0.714E-04     0.0047357089        9.0148907455       1.88  <-- CONV
        O_D=      0.0026481 O_OD=      1.8118594 O_TOT=      9.0148907 <-- SPRD
 Delta: O_D=  0.9007117E-05 O_OD= -0.8045252E-04 O_TOT= -0.7144540E-04 <-- DLTA
 ------------------------------------------------------------------------------
 Cycle:    290
  WF centre and spread    1  (  0.323750, -0.205052,  0.520838 )     2.27667886
  WF centre and spread    2  (  0.322967, -0.202748, -0.522537 )     2.27656901
  WF centre and spread    3  ( -0.596318, -0.272031,  0.000018 )     2.24443117
  WF centre and spread    4  ( -0.039297,  0.661744,  0.001681 )     2.21711940
  Sum of centres and spreads (  0.011103, -0.018087, -0.000001 )     9.01479845
 
    290    -0.924E-04     0.0061189991        9.0147983816       1.88  <-- CONV
        O_D=      0.0026363 O_OD=      1.8117789 O_TOT=      9.0147984 <-- SPRD
 Delta: O_D= -0.1178723E-04 O_OD= -0.8057671E-04 O_TOT= -0.9236394E-04 <-- DLTA
 ------------------------------------------------------------------------------
 Cycle:    291
  WF centre and spread    1  (  0.324534, -0.203744,  0.520942 )     2.27626398
  WF centre and spread    2  (  0.323755, -0.201393, -0.522682 )     2.27623564
  WF centre and spread    3  ( -0.595118, -0.274483, -0.000004 )     2.24488205
  WF centre and spread    4  ( -0.042245,  0.661594,  0.001713 )     2.21732209
  Sum of centres and spreads (  0.010926, -0.018026, -0.000031 )     9.01470375
 
    291    -0.947E-04     0.0060581790        9.0147036852       1.89  <-- CONV
        O_D=      0.0026465 O_OD=      1.8116740 O_TOT=      9.0147037 <-- SPRD
 Delta: O_D=  0.1016836E-04 O_OD= -0.1048647E-03 O_TOT= -0.9469637E-04 <-- DLTA
 ------------------------------------------------------------------------------
 Cycle:    292
  WF centre and spread    1  (  0.324606, -0.203665,  0.520958 )     2.27641659
  WF centre and spread    2  (  0.323844, -0.201324, -0.522659 )     2.27626162
  WF centre and spread    3  ( -0.595021, -0.274648, -0.000014 )     2.24478409
  WF centre and spread    4  ( -0.042463,  0.661577,  0.001704 )     2.21714618
  Sum of centres and spreads (  0.010966, -0.018060, -0.000012 )     9.01460850
 
    292    -0.953E-04     0.0079622769        9.0146084277       1.90  <-- CONV
        O_D=      0.0026346 O_OD=      1.8115906 O_TOT=      9.0146084 <-- SPRD
 Delta: O_D= -0.1185792E-04 O_OD= -0.8339954E-04 O_TOT= -0.9525747E-04 <-- DLTA
 ------------------------------------------------------------------------------
 Cycle:    293
  WF centre and spread    1  (  0.324789, -0.203443,  0.520987 )     2.27684817
  WF centre and spread    2  (  0.324067, -0.201122, -0.522596 )     2.27640826
  WF centre and spread    3  ( -0.594769, -0.275094, -0.000041 )     2.24454862
  WF centre and spread    4  ( -0.043049,  0.661543,  0.001682 )     2.21670759
  Sum of centres and spreads (  0.011038, -0.018116,  0.000032 )     9.01451263
 
    293    -0.959E-04     0.0061245196        9.0145125666       1.90  <-- CONV
        O_D=      0.0026445 O_OD=      1.8114848 O_TOT=      9.0145126 <-- SPRD
 Delta: O_D=  0.9934450E-05 O_OD= -0.1057956E-03 O_TOT= -0.9586113E-04 <-- DLTA
 ------------------------------------------------------------------------------
 Cycle:    294
  WF centre and spread    1  (  0.325004, -0.203144,  0.521005 )     2.27733433
  WF centre and spread    2  (  0.324321, -0.200839, -0.522520 )     2.27663589
  WF centre and spread    3  ( -0.594467, -0.275662, -0.000067 )     2.24427186
  WF centre and spread    4  ( -0.043791,  0.661513,  0.001661 )     2.21619433
  Sum of centres and spreads (  0.011068, -0.018131,  0.000079 )     9.01443642
 
    294    -0.762E-04     0.0062769483        9.0144363483       1.91  <-- CONV
        O_D=      0.0026332 O_OD=      1.8114199 O_TOT=      9.0144363 <-- SPRD
 Delta: O_D= -0.1130925E-04 O_OD= -0.6490902E-04 O_TOT= -0.7621827E-04 <-- DLTA
 ------------------------------------------------------------------------------
 Cycle:    295
  WF centre and spread    1  (  0.325186, -0.202851,  0.521009 )     2.27762476
  WF centre and spread    2  (  0.324527, -0.200550, -0.522469 )     2.27681612
  WF centre and spread    3  ( -0.594201, -0.276194, -0.000083 )     2.24410173
  WF centre and spread    4  ( -0.044472,  0.661494,  0.001652 )     2.21584997
  Sum of centres and spreads (  0.011040, -0.018101,  0.000110 )     9.01439259
 
    295    -0.438E-04     0.0049182259        9.0143925175       1.91  <-- CONV
        O_D=      0.0026315 O_OD=      1.8113778 O_TOT=      9.0143925 <-- SPRD
 Delta: O_D= -0.1708761E-05 O_OD= -0.4212204E-04 O_TOT= -0.4383081E-04 <-- DLTA
 ------------------------------------------------------------------------------
 Cycle:    296
  WF centre and spread    1  (  0.325507, -0.202305,  0.521023 )     2.27780623
  WF centre and spread    2  (  0.324872, -0.199998, -0.522437 )     2.27697622
  WF centre and spread    3  ( -0.593719, -0.277181, -0.000098 )     2.24402677
  WF centre and spread    4  ( -0.045702,  0.661451,  0.001653 )     2.21553241
  Sum of centres and spreads (  0.010958, -0.018034,  0.000140 )     9.01434163
 
    296    -0.510E-04     0.0040312946        9.0143415616       1.92  <-- CONV
        O_D=      0.0026292 O_OD=      1.8113291 O_TOT=      9.0143416 <-- SPRD
 Delta: O_D= -0.2280445E-05 O_OD= -0.4867551E-04 O_TOT= -0.5095595E-04 <-- DLTA
 ------------------------------------------------------------------------------
 Cycle:    297
  WF centre and spread    1  (  0.326129, -0.201265,  0.521094 )     2.27773285
  WF centre and spread    2  (  0.325521, -0.198933, -0.522476 )     2.27697281
  WF centre and spread    3  ( -0.592763, -0.279092, -0.000120 )     2.24421538
  WF centre and spread    4  ( -0.048045,  0.661325,  0.001669 )     2.21534278
  Sum of centres and spreads (  0.010841, -0.017966,  0.000166 )     9.01426383
 
    297    -0.778E-04     0.0048257021        9.0142637619       1.93  <-- CONV
        O_D=      0.0026432 O_OD=      1.8112374 O_TOT=      9.0142638 <-- SPRD
 Delta: O_D=  0.1392061E-04 O_OD= -0.9172025E-04 O_TOT= -0.7779964E-04 <-- DLTA
 ------------------------------------------------------------------------------
 Cycle:    298
  WF centre and spread    1  (  0.326176, -0.201199,  0.521118 )     2.27757080
  WF centre and spread    2  (  0.325565, -0.198861, -0.522516 )     2.27683230
  WF centre and spread    3  ( -0.592684, -0.279232, -0.000120 )     2.24432374
  WF centre and spread    4  ( -0.048201,  0.661300,  0.001673 )     2.21545902
  Sum of centres and spreads (  0.010856, -0.017992,  0.000156 )     9.01418586
 
    298    -0.780E-04     0.0083614035        9.0141857874       1.93  <-- CONV
        O_D=      0.0026261 O_OD=      1.8111765 O_TOT=      9.0141858 <-- SPRD
 Delta: O_D= -0.1704549E-04 O_OD= -0.6092902E-04 O_TOT= -0.7797451E-04 <-- DLTA
 ------------------------------------------------------------------------------
 Cycle:    299
  WF centre and spread    1  (  0.326297, -0.201017,  0.521167 )     2.27723902
  WF centre and spread    2  (  0.325676, -0.198666, -0.522602 )     2.27656465
  WF centre and spread    3  ( -0.592486, -0.279598, -0.000120 )     2.24459039
  WF centre and spread    4  ( -0.048616,  0.661245,  0.001686 )     2.21573975
  Sum of centres and spreads (  0.010871, -0.018036,  0.000131 )     9.01413382
 
    299    -0.520E-04     0.0048596851        9.0141337495       1.94  <-- CONV
        O_D=      0.0026265 O_OD=      1.8111240 O_TOT=      9.0141337 <-- SPRD
 Delta: O_D=  0.3778434E-06 O_OD= -0.5241582E-04 O_TOT= -0.5203798E-04 <-- DLTA
 ------------------------------------------------------------------------------
 Cycle:    300
  WF centre and spread    1  (  0.326499, -0.200678,  0.521217 )     2.27682429
  WF centre and spread    2  (  0.325864, -0.198305, -0.522705 )     2.27627044
  WF centre and spread    3  ( -0.592158, -0.280242, -0.000118 )     2.24492097
  WF centre and spread    4  ( -0.049366,  0.661175,  0.001706 )     2.21607261
  Sum of centres and spreads (  0.010839, -0.018049,  0.000100 )     9.01408832
 
    300    -0.455E-04     0.0040883724        9.0140882549       1.95  <-- CONV
        O_D=      0.0026271 O_OD=      1.8110779 O_TOT=      9.0140883 <-- SPRD
 Delta: O_D=  0.6155543E-06 O_OD= -0.4611008E-04 O_TOT= -0.4549452E-04 <-- DLTA
 ------------------------------------------------------------------------------

 Writing checkpoint file pb.chk... done

 Final State
  WF centre and spread    1  (  0.326499, -0.200678,  0.521217 )     2.27682429
  WF centre and spread    2  (  0.325864, -0.198305, -0.522705 )     2.27627044
  WF centre and spread    3  ( -0.592158, -0.280242, -0.000118 )     2.24492097
  WF centre and spread    4  ( -0.049366,  0.661175,  0.001706 )     2.21607261
  Sum of centres and spreads (  0.010839, -0.018049,  0.000100 )     9.01408832
 
         Spreads (Ang^2)       Omega I      =     7.200383216
        ================       Omega D      =     0.002627112
                               Omega OD     =     1.811077927
    Final Spread (Ang^2)       Omega Total  =     9.014088255
 ------------------------------------------------------------------------------
 Time for wannierise            1.950 (sec)

 Writing checkpoint file pb.chk... done

 *---------------------------------------------------------------------------*
 |                               PLOTTING                                    |
 *---------------------------------------------------------------------------*
 
 
 Calculating interpolated band-structure
 
 Time to calculate interpolated band structure       0.173 (sec)
 
 Time for plotting              0.215 (sec)
 Total Execution Time           2.362 (sec)

 *===========================================================================*
 |                             TIMING INFORMATION                            |
 *===========================================================================*
 |    Tag                                                Ncalls      Time (s)|
 |---------------------------------------------------------------------------|
 |kmesh: get                                        :         1         0.124|
 |overlap: allocate                                 :         1         0.001|
 |overlap: read                                     :         1         0.031|
 |wann: main                                        :         1         1.950|
 |plot: main                                        :         1         0.215|
 *---------------------------------------------------------------------------*
 
 All done: wannier90 exiting
