 
             +---------------------------------------------------+
             |                                                   |
             |                   WANNIER90                       |
             |                                                   |
             +---------------------------------------------------+
             |                                                   |
             |        Welcome to the Maximally-Localized         |
             |        Generalized Wannier Functions code         |
             |            http://www.wannier.org                 |
             |                                                   |
             |                                                   |
             |  Wannier90 Developer Group:                       |
             |    Giovanni Pizzi    (EPFL)                       |
             |    Valerio Vitale    (Cambridge)                  |
             |    David Vanderbilt  (Rutgers University)         |
             |    Nicola Marzari    (EPFL)                       |
             |    Ivo Souza         (Universidad del Pais Vasco) |
             |    Arash A. Mostofi  (Imperial College London)    |
             |    Jonathan R. Yates (University of Oxford)       |
             |                                                   |
             |  For the full list of Wannier90 3.x authors,      |
             |  please check the code documentation and the      |
             |  README on the GitHub page of the code            |
             |                                                   |
             |                                                   |
             |  Please cite                                      |
             |                                                   |
             |  [ref] "Wannier90 as a community code:            |
             |        new features and applications",            |
             |        G. Pizzi et al., J. Phys. Cond. Matt. 32,  |
             |        165902 (2020).                             |
             |        http://doi.org/10.1088/1361-648X/ab51ff    |
             |                                                   |
             |  in any publications arising from the use of      |
             |  this code. For the method please cite            |
             |                                                   |
             |  [ref] "Maximally Localized Generalised Wannier   |
             |         Functions for Composite Energy Bands"     |
             |         N. Marzari and D. Vanderbilt              |
             |         Phys. Rev. B 56 12847 (1997)              |
             |                                                   |
             |  [ref] "Maximally Localized Wannier Functions     |
             |         for Entangled Energy Bands"               |
             |         I. Souza, N. Marzari and D. Vanderbilt    |
             |         Phys. Rev. B 65 035109 (2001)             |
             |                                                   |
             |                                                   |
             | Copyright (c) 1996-2020                           |
             |        The Wannier90 Developer Group and          |
             |        individual contributors                    |
             |                                                   |
             |      Release: 3.1.0        5th March    2020      |
             |                                                   |
             | This program is free software; you can            |
             | redistribute it and/or modify it under the terms  |
             | of the GNU General Public License as published by |
             | the Free Software Foundation; either version 2 of |
             | the License, or (at your option) any later version|
             |                                                   |
             | This program is distributed in the hope that it   |
             | will be useful, but WITHOUT ANY WARRANTY; without |
             | even the implied warranty of MERCHANTABILITY or   |
             | FITNESS FOR A PARTICULAR PURPOSE. See the GNU     |
             | General Public License for more details.          |
             |                                                   |
             | You should have received a copy of the GNU General|
             | Public License along with this program; if not,   |
             | write to the Free Software Foundation, Inc.,      |
             | 675 Mass Ave, Cambridge, MA 02139, USA.           |
             |                                                   |
             +---------------------------------------------------+
             |    Execution started on 21Jun2023 at 15:44:18     |
             +---------------------------------------------------+
 
 ******************************************************************************
 * -> Using CODATA 2006 constant values                                       *
 *    (http://physics.nist.gov/cuu/Constants/index.html)                      *
 * -> Using Bohr value from CODATA                                            *
 ******************************************************************************
 

 Running in serial (with parallel executable)
 
                                    ------
                                    SYSTEM
                                    ------
 
                              Lattice Vectors (Ang)
                    a_1    -2.432387   0.000000   2.432387
                    a_2     0.000000   2.432387   2.432387
                    a_3    -2.432387   2.432387   0.000000
 
                   Unit Cell Volume:      28.78245  (Ang^3)
 
                        Reciprocal-Space Vectors (Ang^-1)
                    b_1    -1.291568  -1.291568   1.291568
                    b_2     1.291568   1.291568   1.291568
                    b_3    -1.291568   1.291568  -1.291568
  
 *----------------------------------------------------------------------------*
 |   Site       Fractional Coordinate          Cartesian Coordinate (Ang)     |
 +----------------------------------------------------------------------------+
 | Pb   1   0.00000   0.00000   0.00000   |    0.00000   0.00000   0.00000    |
 *----------------------------------------------------------------------------*
                                ------------
                                K-POINT GRID
                                ------------
  
             Grid size =  6 x  6 x  6      Total points =  216
  
  
 *---------------------------------- MAIN ------------------------------------*
 |  Number of Wannier Functions               :                 4             |
 |  Number of Objective Wannier Functions     :                 4             |
 |  Number of input Bloch states              :                 4             |
 |  Output verbosity (1=low, 5=high)          :                 1             |
 |  Timing Level (1=low, 5=high)              :                 1             |
 |  Optimisation (0=memory, 3=speed)          :                 3             |
 |  Length Unit                               :               Ang             |
 |  Post-processing setup (write *.nnkp)      :                 F             |
 |  Using Gamma-only branch of algorithms     :                 F             |
 *----------------------------------------------------------------------------*
 *------------------------------- WANNIERISE ---------------------------------*
 |  Total number of iterations                :               300             |
 |  Number of CG steps before reset           :                 5             |
 |  Trial step length for line search         :             2.000             |
 |  Convergence tolerence                     :         0.100E-09             |
 |  Convergence window                        :                -1             |
 |  Iterations between writing output         :                 1             |
 |  Iterations between backing up to disk     :               100             |
 |  Write r^2_nm to file                      :                 F             |
 |  Write xyz WF centres to file              :                 F             |
 |  Write on-site energies <0n|H|0n> to file  :                 F             |
 |  Use guiding centre to control phases      :                 F             |
 |  Use phases for initial projections        :                 F             |
 *----------------------------------------------------------------------------*
 *-------------------------------- PLOTTING ----------------------------------*
 |  Plotting interpolated bandstructure       :                 T             |
 |   Number of K-path sections                :                 6             |
 |   Divisions along first K-path section     :               100             |
 |   Output format                            :           gnuplot             |
 |   Output mode                              :               s-k             |
 *----------------------------------------------------------------------------*
 |   K-space path sections:                                                   |
 |    From: G       0.000  0.000  0.000     To: X       0.000  0.500  0.500   |
 |    From: X       0.000  0.500  0.500     To: W       0.250  0.500  0.750   |
 |    From: W       0.250  0.500  0.750     To: L       0.500  0.500  0.500   |
 |    From: L       0.500  0.500  0.500     To: K       0.375  0.375  0.750   |
 |    From: K       0.375  0.375  0.750     To: G       0.000  0.000  0.000   |
 |    From: G       0.000  0.000  0.000     To: L       0.500  0.500  0.500   |
 *----------------------------------------------------------------------------*
 Time to read parameters        0.042 (sec)

 *---------------------------------- K-MESH ----------------------------------*
 +----------------------------------------------------------------------------+
 |                    Distance to Nearest-Neighbour Shells                    |
 |                    ------------------------------------                    |
 |          Shell             Distance (Ang^-1)          Multiplicity         |
 |          -----             -----------------          ------------         |
 |             1                   0.372844                      8            |
 |             2                   0.430523                      6            |
 |             3                   0.608851                     12            |
 |             4                   0.713941                     24            |
 |             5                   0.745687                      8            |
 |             6                   0.861045                      6            |
 |             7                   0.938302                     24            |
 |             8                   0.962678                     24            |
 |             9                   1.054561                     24            |
 |            10                   1.118531                     32            |
 |            11                   1.217702                     12            |
 |            12                   1.273503                     48            |
 |            13                   1.291568                     30            |
 |            14                   1.361432                     24            |
 |            15                   1.411563                     24            |
 |            16                   1.427882                     24            |
 |            17                   1.491374                      8            |
 |            18                   1.537273                     48            |
 |            19                   1.552272                     24            |
 |            20                   1.610868                     48            |
 |            21                   1.653454                     72            |
 |            22                   1.722091                      6            |
 |            23                   1.761990                     24            |
 |            24                   1.775090                     48            |
 |            25                   1.826553                     36            |
 |            26                   1.864218                     56            |
 |            27                   1.876605                     24            |
 |            28                   1.925356                     24            |
 |            29                   1.961124                     72            |
 |            30                   1.972903                     48            |
 |            31                   2.019330                     24            |
 |            32                   2.053462                     48            |
 |            33                   2.109122                     24            |
 |            34                   2.141823                     72            |
 |            35                   2.152613                     30            |
 |            36                   2.195243                     72            |
 +----------------------------------------------------------------------------+
 | The b-vectors are chosen automatically                                     |
 | The following shells are used:   1                                         |
 +----------------------------------------------------------------------------+
 |                        Shell   # Nearest-Neighbours                        |
 |                        -----   --------------------                        |
 |                          1               8                                 |
 +----------------------------------------------------------------------------+
 | Completeness relation is fully satisfied [Eq. (B1), PRB 56, 12847 (1997)]  |
 +----------------------------------------------------------------------------+
 |                  b_k Vectors (Ang^-1) and Weights (Ang^2)                  |
 |                  ----------------------------------------                  |
 |            No.         b_k(x)      b_k(y)      b_k(z)        w_b           |
 |            ---        --------------------------------     --------        |
 |             1        -0.215261    0.215261   -0.215261     2.697602        |
 |             2         0.215261    0.215261    0.215261     2.697602        |
 |             3        -0.215261   -0.215261    0.215261     2.697602        |
 |             4        -0.215261    0.215261    0.215261     2.697602        |
 |             5         0.215261   -0.215261    0.215261     2.697602        |
 |             6        -0.215261   -0.215261   -0.215261     2.697602        |
 |             7         0.215261    0.215261   -0.215261     2.697602        |
 |             8         0.215261   -0.215261   -0.215261     2.697602        |
 +----------------------------------------------------------------------------+
 |                           b_k Directions (Ang^-1)                          |
 |                           -----------------------                          |
 |            No.           x           y           z                         |
 |            ---        --------------------------------                     |
 |             1        -0.215261    0.215261   -0.215261                     |
 |             2         0.215261    0.215261    0.215261                     |
 |             3        -0.215261   -0.215261    0.215261                     |
 |             4        -0.215261    0.215261    0.215261                     |
 +----------------------------------------------------------------------------+
  
 Time to get kmesh              0.124 (sec)
 *============================================================================*
 |                              MEMORY ESTIMATE                               |
 |         Maximum RAM allocated during each phase of the calculation         |
 *============================================================================*
 |                            Wannierise:            1.41 Mb                  |
 |                          plot_wannier:            1.41 Mb                  |
 *----------------------------------------------------------------------------*
  
 Starting a new Wannier90 calculation ...


 Reading overlaps from pb.mmn    :  intw2W90::CONVOLUTION-IBZ time:: 15:43:41 day:: 2

 Reading projections from pb.amn :  intw2W90::CONVOLUTION time:: 15:43:46 day:: 21/06

 Time to read overlaps          0.033 (sec)

 Writing checkpoint file pb.chk... done

 
 *------------------------------- WANNIERISE ---------------------------------*
 +--------------------------------------------------------------------+<-- CONV
 | Iter  Delta Spread     RMS Gradient      Spread (Ang^2)      Time  |<-- CONV
 +--------------------------------------------------------------------+<-- CONV
 
 ------------------------------------------------------------------------------
 Initial State
  WF centre and spread    1  (  0.000000, -0.000000, -0.000000 )     1.66620908
  WF centre and spread    2  (  0.000000,  0.000000,  0.000000 )     2.96061980
  WF centre and spread    3  ( -0.000000,  0.000000, -0.000000 )     2.96061975
  WF centre and spread    4  (  0.000000,  0.000000,  0.000000 )     2.96061969
  Sum of centres and spreads ( -0.000000,  0.000000,  0.000000 )    10.54806831
 
      0     0.105E+02     0.0000000000       10.5480683144       0.00  <-- CONV
        O_D=      0.0000000 O_OD=      3.3476909 O_TOT=     10.5480683 <-- SPRD
 ------------------------------------------------------------------------------
 Cycle:      1
  WF centre and spread    1  (  0.000000, -0.000000, -0.000000 )     1.63293988
  WF centre and spread    2  (  0.000000,  0.000000,  0.000000 )     2.95893972
  WF centre and spread    3  ( -0.000000,  0.000000, -0.000000 )     2.95893966
  WF centre and spread    4  (  0.000000,  0.000000,  0.000000 )     2.95893961
  Sum of centres and spreads ( -0.000000,  0.000000,  0.000000 )    10.50975887
 
      1    -0.383E-01     0.1021667290       10.5097588677       0.01  <-- CONV
        O_D=      0.0000000 O_OD=      3.3093815 O_TOT=     10.5097589 <-- SPRD
 Delta: O_D=  0.1231884E-11 O_OD= -0.3830945E-01 O_TOT= -0.3830945E-01 <-- DLTA
 ------------------------------------------------------------------------------
 Cycle:      2
  WF centre and spread    1  (  0.000000, -0.000000, -0.000000 )     1.62377185
  WF centre and spread    2  (  0.000000,  0.000000,  0.000000 )     2.95875482
  WF centre and spread    3  ( -0.000000,  0.000000, -0.000000 )     2.95875477
  WF centre and spread    4  (  0.000000,  0.000000,  0.000000 )     2.95875472
  Sum of centres and spreads ( -0.000000,  0.000000,  0.000000 )    10.50003616
 
      2    -0.972E-02     0.0621724975       10.5000361592       0.01  <-- CONV
        O_D=      0.0000000 O_OD=      3.2996587 O_TOT=     10.5000362 <-- SPRD
 Delta: O_D=  0.3244125E-11 O_OD= -0.9722708E-02 O_TOT= -0.9722708E-02 <-- DLTA
 ------------------------------------------------------------------------------
 Cycle:      3
  WF centre and spread    1  (  0.000000, -0.000000, -0.000000 )     1.62290021
  WF centre and spread    2  (  0.000000,  0.000000,  0.000000 )     2.95867091
  WF centre and spread    3  ( -0.000000,  0.000000, -0.000000 )     2.95867085
  WF centre and spread    4  (  0.000000,  0.000000,  0.000000 )     2.95867080
  Sum of centres and spreads ( -0.000000,  0.000000,  0.000000 )    10.49891277
 
      3    -0.112E-02     0.0262814293       10.4989127717       0.02  <-- CONV
        O_D=      0.0000000 O_OD=      3.2985354 O_TOT=     10.4989128 <-- SPRD
 Delta: O_D=  0.8976163E-12 O_OD= -0.1123387E-02 O_TOT= -0.1123387E-02 <-- DLTA
 ------------------------------------------------------------------------------
 Cycle:      4
  WF centre and spread    1  (  0.000000, -0.000000, -0.000000 )     1.62274690
  WF centre and spread    2  (  0.000000,  0.000000,  0.000000 )     2.95868095
  WF centre and spread    3  ( -0.000000,  0.000000, -0.000000 )     2.95868090
  WF centre and spread    4  (  0.000000,  0.000000,  0.000000 )     2.95868084
  Sum of centres and spreads ( -0.000000,  0.000000,  0.000000 )    10.49878960
 
      4    -0.123E-03     0.0101228233       10.4987895994       0.03  <-- CONV
        O_D=      0.0000000 O_OD=      3.2984122 O_TOT=     10.4987896 <-- SPRD
 Delta: O_D= -0.3775662E-11 O_OD= -0.1231723E-03 O_TOT= -0.1231723E-03 <-- DLTA
 ------------------------------------------------------------------------------
 Cycle:      5
  WF centre and spread    1  (  0.000000, -0.000000, -0.000000 )     1.62271442
  WF centre and spread    2  (  0.000000,  0.000000,  0.000000 )     2.95868848
  WF centre and spread    3  ( -0.000000,  0.000000, -0.000000 )     2.95868843
  WF centre and spread    4  (  0.000000,  0.000000,  0.000000 )     2.95868838
  Sum of centres and spreads ( -0.000000,  0.000000,  0.000000 )    10.49877971
 
      5    -0.989E-05     0.0027058698       10.4987797101       0.03  <-- CONV
        O_D=      0.0000000 O_OD=      3.2984023 O_TOT=     10.4987797 <-- SPRD
 Delta: O_D= -0.4936085E-12 O_OD= -0.9889253E-05 O_TOT= -0.9889253E-05 <-- DLTA
 ------------------------------------------------------------------------------
 Cycle:      6
  WF centre and spread    1  (  0.000000, -0.000000, -0.000000 )     1.62270953
  WF centre and spread    2  (  0.000000,  0.000000,  0.000000 )     2.95868954
  WF centre and spread    3  ( -0.000000,  0.000000, -0.000000 )     2.95868949
  WF centre and spread    4  (  0.000000,  0.000000,  0.000000 )     2.95868943
  Sum of centres and spreads ( -0.000000,  0.000000,  0.000000 )    10.49877799
 
      6    -0.172E-05     0.0010826801       10.4987779898       0.04  <-- CONV
        O_D=      0.0000000 O_OD=      3.2984006 O_TOT=     10.4987780 <-- SPRD
 Delta: O_D= -0.2004751E-12 O_OD= -0.1720375E-05 O_TOT= -0.1720375E-05 <-- DLTA
 ------------------------------------------------------------------------------
 Cycle:      7
  WF centre and spread    1  (  0.000000, -0.000000, -0.000000 )     1.62271850
  WF centre and spread    2  (  0.000000,  0.000000,  0.000000 )     2.95868652
  WF centre and spread    3  ( -0.000000,  0.000000, -0.000000 )     2.95868647
  WF centre and spread    4  (  0.000000,  0.000000,  0.000000 )     2.95868642
  Sum of centres and spreads ( -0.000000,  0.000000,  0.000000 )    10.49877791
 
      7    -0.806E-07     0.0002199248       10.4987779092       0.05  <-- CONV
        O_D=      0.0000000 O_OD=      3.2984005 O_TOT=     10.4987779 <-- SPRD
 Delta: O_D=  0.1814210E-11 O_OD= -0.8056450E-07 O_TOT= -0.8056269E-07 <-- DLTA
 ------------------------------------------------------------------------------
 Cycle:      8
  WF centre and spread    1  (  0.000000, -0.000000, -0.000000 )     1.62272752
  WF centre and spread    2  (  0.000000,  0.000000,  0.000000 )     2.95868351
  WF centre and spread    3  ( -0.000000,  0.000000, -0.000000 )     2.95868346
  WF centre and spread    4  (  0.000000,  0.000000,  0.000000 )     2.95868340
  Sum of centres and spreads ( -0.000000,  0.000000,  0.000000 )    10.49877789
 
      8    -0.216E-07     0.0001000557       10.4987778876       0.05  <-- CONV
        O_D=      0.0000000 O_OD=      3.2984005 O_TOT=     10.4987779 <-- SPRD
 Delta: O_D=  0.9583942E-11 O_OD= -0.2160265E-07 O_TOT= -0.2159307E-07 <-- DLTA
 ------------------------------------------------------------------------------
 Cycle:      9
  WF centre and spread    1  (  0.000000, -0.000000, -0.000000 )     1.62273209
  WF centre and spread    2  (  0.000000,  0.000000,  0.000000 )     2.95868198
  WF centre and spread    3  ( -0.000000,  0.000000, -0.000000 )     2.95868193
  WF centre and spread    4  (  0.000000,  0.000000,  0.000000 )     2.95868188
  Sum of centres and spreads ( -0.000000,  0.000000,  0.000000 )    10.49877788
 
      9    -0.723E-08     0.0000642501       10.4987778804       0.06  <-- CONV
        O_D=      0.0000000 O_OD=      3.2984005 O_TOT=     10.4987779 <-- SPRD
 Delta: O_D=  0.7626400E-11 O_OD= -0.7238415E-08 O_TOT= -0.7230788E-08 <-- DLTA
 ------------------------------------------------------------------------------
 Cycle:     10
  WF centre and spread    1  (  0.000000, -0.000000, -0.000000 )     1.62273556
  WF centre and spread    2  (  0.000000,  0.000000,  0.000000 )     2.95868083
  WF centre and spread    3  ( -0.000000,  0.000000, -0.000000 )     2.95868077
  WF centre and spread    4  (  0.000000,  0.000000,  0.000000 )     2.95868072
  Sum of centres and spreads ( -0.000000,  0.000000,  0.000000 )    10.49877788
 
     10     0.197E-08     0.0000323863       10.4987778824       0.07  <-- CONV
        O_D=      0.0000000 O_OD=      3.2984005 O_TOT=     10.4987779 <-- SPRD
 Delta: O_D=  0.3755194E-09 O_OD=  0.1598592E-08 O_TOT=  0.1974110E-08 <-- DLTA
 ------------------------------------------------------------------------------
 Cycle:     11
  WF centre and spread    1  (  0.000000, -0.000000, -0.000000 )     1.62273547
  WF centre and spread    2  (  0.000000,  0.000000,  0.000000 )     2.95868086
  WF centre and spread    3  ( -0.000000,  0.000000, -0.000000 )     2.95868080
  WF centre and spread    4  (  0.000000,  0.000000,  0.000000 )     2.95868075
  Sum of centres and spreads ( -0.000000,  0.000000,  0.000000 )    10.49877788
 
     11    -0.379E-08     0.0000651077       10.4987778786       0.07  <-- CONV
        O_D=      0.0000000 O_OD=      3.2984005 O_TOT=     10.4987779 <-- SPRD
 Delta: O_D= -0.3121813E-09 O_OD= -0.3476722E-08 O_TOT= -0.3788903E-08 <-- DLTA
 ------------------------------------------------------------------------------
 Cycle:     12
  WF centre and spread    1  (  0.000000, -0.000000, -0.000000 )     1.62273536
  WF centre and spread    2  (  0.000000,  0.000000,  0.000000 )     2.95868089
  WF centre and spread    3  ( -0.000000,  0.000000, -0.000000 )     2.95868084
  WF centre and spread    4  (  0.000000,  0.000000,  0.000000 )     2.95868079
  Sum of centres and spreads ( -0.000000,  0.000000,  0.000000 )    10.49877788
 
     12    -0.327E-09     0.0000187768       10.4987778782       0.08  <-- CONV
        O_D=      0.0000000 O_OD=      3.2984005 O_TOT=     10.4987779 <-- SPRD
 Delta: O_D= -0.8225151E-10 O_OD= -0.2451439E-09 O_TOT= -0.3273950E-09 <-- DLTA
 ------------------------------------------------------------------------------
 Cycle:     13
  WF centre and spread    1  (  0.000000, -0.000000, -0.000000 )     1.62273522
  WF centre and spread    2  (  0.000000,  0.000000,  0.000000 )     2.95868094
  WF centre and spread    3  ( -0.000000,  0.000000, -0.000000 )     2.95868089
  WF centre and spread    4  (  0.000000,  0.000000,  0.000000 )     2.95868083
  Sum of centres and spreads ( -0.000000,  0.000000,  0.000000 )    10.49877788
 
     13    -0.121E-09     0.0000094242       10.4987778781       0.09  <-- CONV
        O_D=      0.0000000 O_OD=      3.2984005 O_TOT=     10.4987779 <-- SPRD
 Delta: O_D=  0.3926176E-11 O_OD= -0.1246461E-09 O_TOT= -0.1207194E-09 <-- DLTA
 ------------------------------------------------------------------------------
 Cycle:     14
  WF centre and spread    1  (  0.000000, -0.000000, -0.000000 )     1.62273477
  WF centre and spread    2  (  0.000000,  0.000000,  0.000000 )     2.95868109
  WF centre and spread    3  ( -0.000000,  0.000000, -0.000000 )     2.95868104
  WF centre and spread    4  (  0.000000,  0.000000,  0.000000 )     2.95868098
  Sum of centres and spreads ( -0.000000,  0.000000,  0.000000 )    10.49877788
 
     14    -0.695E-10     0.0000062405       10.4987778781       0.09  <-- CONV
        O_D=      0.0000000 O_OD=      3.2984005 O_TOT=     10.4987779 <-- SPRD
 Delta: O_D= -0.4693234E-11 O_OD= -0.6480105E-10 O_TOT= -0.6949463E-10 <-- DLTA
 ------------------------------------------------------------------------------
 Cycle:     15
  WF centre and spread    1  (  0.000000, -0.000000, -0.000000 )     1.62273476
  WF centre and spread    2  (  0.000000,  0.000000,  0.000000 )     2.95868109
  WF centre and spread    3  ( -0.000000,  0.000000, -0.000000 )     2.95868104
  WF centre and spread    4  (  0.000000,  0.000000,  0.000000 )     2.95868099
  Sum of centres and spreads ( -0.000000,  0.000000,  0.000000 )    10.49877788
 
     15    -0.144E-11     0.0000067097       10.4987778781       0.10  <-- CONV
        O_D=      0.0000000 O_OD=      3.2984005 O_TOT=     10.4987779 <-- SPRD
 Delta: O_D=  0.3670979E-13 O_OD= -0.1479261E-11 O_TOT= -0.1442402E-11 <-- DLTA
 ------------------------------------------------------------------------------
 Cycle:     16
  WF centre and spread    1  (  0.000000, -0.000000, -0.000000 )     1.62273475
  WF centre and spread    2  (  0.000000,  0.000000,  0.000000 )     2.95868110
  WF centre and spread    3  ( -0.000000,  0.000000, -0.000000 )     2.95868104
  WF centre and spread    4  (  0.000000,  0.000000,  0.000000 )     2.95868099
  Sum of centres and spreads ( -0.000000,  0.000000,  0.000000 )    10.49877788
 
     16    -0.144E-11     0.0000066581       10.4987778780       0.10  <-- CONV
        O_D=      0.0000000 O_OD=      3.2984005 O_TOT=     10.4987779 <-- SPRD
 Delta: O_D= -0.6076534E-14 O_OD= -0.1430411E-11 O_TOT= -0.1435296E-11 <-- DLTA
 ------------------------------------------------------------------------------
 Cycle:     17
  WF centre and spread    1  (  0.000000, -0.000000, -0.000000 )     1.62273475
  WF centre and spread    2  (  0.000000,  0.000000,  0.000000 )     2.95868110
  WF centre and spread    3  ( -0.000000,  0.000000, -0.000000 )     2.95868104
  WF centre and spread    4  (  0.000000,  0.000000,  0.000000 )     2.95868099
  Sum of centres and spreads ( -0.000000,  0.000000,  0.000000 )    10.49877788
 
     17    -0.103E-11     0.0000065785       10.4987778780       0.11  <-- CONV
        O_D=      0.0000000 O_OD=      3.2984005 O_TOT=     10.4987779 <-- SPRD
 Delta: O_D= -0.1653789E-13 O_OD= -0.1016520E-11 O_TOT= -0.1033840E-11 <-- DLTA
 ------------------------------------------------------------------------------
 Cycle:     18
  WF centre and spread    1  (  0.000000, -0.000000, -0.000000 )     1.62273469
  WF centre and spread    2  (  0.000000,  0.000000,  0.000000 )     2.95868111
  WF centre and spread    3  ( -0.000000,  0.000000, -0.000000 )     2.95868106
  WF centre and spread    4  (  0.000000,  0.000000,  0.000000 )     2.95868101
  Sum of centres and spreads ( -0.000000,  0.000000,  0.000000 )    10.49877788
 
     18    -0.324E-10     0.0000065140       10.4987778780       0.12  <-- CONV
        O_D=      0.0000000 O_OD=      3.2984005 O_TOT=     10.4987779 <-- SPRD
 Delta: O_D= -0.4134098E-12 O_OD= -0.3202416E-10 O_TOT= -0.3243805E-10 <-- DLTA
 ------------------------------------------------------------------------------
 Cycle:     19
  WF centre and spread    1  (  0.000000, -0.000000, -0.000000 )     1.62273469
  WF centre and spread    2  (  0.000000,  0.000000,  0.000000 )     2.95868111
  WF centre and spread    3  ( -0.000000,  0.000000, -0.000000 )     2.95868106
  WF centre and spread    4  (  0.000000,  0.000000,  0.000000 )     2.95868101
  Sum of centres and spreads ( -0.000000,  0.000000,  0.000000 )    10.49877788
 
     19    -0.854E-12     0.0000040665       10.4987778780       0.12  <-- CONV
        O_D=      0.0000000 O_OD=      3.2984005 O_TOT=     10.4987779 <-- SPRD
 Delta: O_D= -0.3680307E-14 O_OD= -0.8504308E-12 O_TOT= -0.8544276E-12 <-- DLTA
 ------------------------------------------------------------------------------
 Cycle:     20
  WF centre and spread    1  (  0.000000, -0.000000, -0.000000 )     1.62273465
  WF centre and spread    2  (  0.000000,  0.000000,  0.000000 )     2.95868113
  WF centre and spread    3  ( -0.000000,  0.000000, -0.000000 )     2.95868108
  WF centre and spread    4  (  0.000000,  0.000000,  0.000000 )     2.95868102
  Sum of centres and spreads ( -0.000000,  0.000000,  0.000000 )    10.49877788
 
     20    -0.128E-10     0.0000039982       10.4987778780       0.13  <-- CONV
        O_D=      0.0000000 O_OD=      3.2984005 O_TOT=     10.4987779 <-- SPRD
 Delta: O_D= -0.1820782E-13 O_OD= -0.1274758E-10 O_TOT= -0.1276490E-10 <-- DLTA
 ------------------------------------------------------------------------------
 Cycle:     21
  WF centre and spread    1  (  0.000000, -0.000000, -0.000000 )     1.62273465
  WF centre and spread    2  (  0.000000,  0.000000,  0.000000 )     2.95868113
  WF centre and spread    3  ( -0.000000,  0.000000, -0.000000 )     2.95868108
  WF centre and spread    4  (  0.000000,  0.000000,  0.000000 )     2.95868102
  Sum of centres and spreads ( -0.000000,  0.000000,  0.000000 )    10.49877788
 
     21    -0.643E-12     0.0000029032       10.4987778780       0.13  <-- CONV
        O_D=      0.0000000 O_OD=      3.2984005 O_TOT=     10.4987779 <-- SPRD
 Delta: O_D=  0.6960815E-15 O_OD= -0.6425971E-12 O_TOT= -0.6430412E-12 <-- DLTA
 ------------------------------------------------------------------------------
 Cycle:     22
  WF centre and spread    1  (  0.000000, -0.000000, -0.000000 )     1.62273458
  WF centre and spread    2  (  0.000000,  0.000000,  0.000000 )     2.95868115
  WF centre and spread    3  ( -0.000000,  0.000000, -0.000000 )     2.95868110
  WF centre and spread    4  (  0.000000,  0.000000,  0.000000 )     2.95868104
  Sum of centres and spreads ( -0.000000,  0.000000,  0.000000 )    10.49877788
 
     22    -0.998E-11     0.0000028533       10.4987778780       0.14  <-- CONV
        O_D=      0.0000000 O_OD=      3.2984005 O_TOT=     10.4987779 <-- SPRD
 Delta: O_D=  0.1925299E-13 O_OD= -0.1000000E-10 O_TOT= -0.9979573E-11 <-- DLTA
 ------------------------------------------------------------------------------
 Cycle:     23
  WF centre and spread    1  (  0.000000, -0.000000, -0.000000 )     1.62273458
  WF centre and spread    2  (  0.000000,  0.000000,  0.000000 )     2.95868115
  WF centre and spread    3  ( -0.000000,  0.000000, -0.000000 )     2.95868110
  WF centre and spread    4  (  0.000000,  0.000000,  0.000000 )     2.95868105
  Sum of centres and spreads ( -0.000000,  0.000000,  0.000000 )    10.49877788
 
     23    -0.290E-12     0.0000020663       10.4987778780       0.14  <-- CONV
        O_D=      0.0000000 O_OD=      3.2984005 O_TOT=     10.4987779 <-- SPRD
 Delta: O_D= -0.2328900E-14 O_OD= -0.2873257E-12 O_TOT= -0.2895462E-12 <-- DLTA
 ------------------------------------------------------------------------------
 Cycle:     24
  WF centre and spread    1  (  0.000000, -0.000000, -0.000000 )     1.62273457
  WF centre and spread    2  (  0.000000,  0.000000,  0.000000 )     2.95868116
  WF centre and spread    3  ( -0.000000,  0.000000, -0.000000 )     2.95868110
  WF centre and spread    4  (  0.000000,  0.000000,  0.000000 )     2.95868105
  Sum of centres and spreads ( -0.000000,  0.000000,  0.000000 )    10.49877788
 
     24    -0.115E-11     0.0000020377       10.4987778780       0.15  <-- CONV
        O_D=      0.0000000 O_OD=      3.2984005 O_TOT=     10.4987779 <-- SPRD
 Delta: O_D= -0.8389982E-14 O_OD= -0.1144862E-11 O_TOT= -0.1152856E-11 <-- DLTA
 ------------------------------------------------------------------------------
 Cycle:     25
  WF centre and spread    1  (  0.000000, -0.000000, -0.000000 )     1.62273457
  WF centre and spread    2  (  0.000000,  0.000000,  0.000000 )     2.95868116
  WF centre and spread    3  ( -0.000000,  0.000000, -0.000000 )     2.95868110
  WF centre and spread    4  (  0.000000,  0.000000,  0.000000 )     2.95868105
  Sum of centres and spreads ( -0.000000,  0.000000,  0.000000 )    10.49877788
 
     25    -0.245E-12     0.0000019193       10.4987778780       0.15  <-- CONV
        O_D=      0.0000000 O_OD=      3.2984005 O_TOT=     10.4987779 <-- SPRD
 Delta: O_D= -0.1419649E-14 O_OD= -0.2424727E-12 O_TOT= -0.2451372E-12 <-- DLTA
 ------------------------------------------------------------------------------
 Cycle:     26
  WF centre and spread    1  (  0.000000, -0.000000, -0.000000 )     1.62273455
  WF centre and spread    2  (  0.000000,  0.000000,  0.000000 )     2.95868116
  WF centre and spread    3  ( -0.000000,  0.000000, -0.000000 )     2.95868111
  WF centre and spread    4  (  0.000000,  0.000000,  0.000000 )     2.95868105
  Sum of centres and spreads ( -0.000000,  0.000000,  0.000000 )    10.49877788
 
     26    -0.155E-11     0.0000018948       10.4987778780       0.16  <-- CONV
        O_D=      0.0000000 O_OD=      3.2984005 O_TOT=     10.4987779 <-- SPRD
 Delta: O_D= -0.7024159E-14 O_OD= -0.1542322E-11 O_TOT= -0.1548983E-11 <-- DLTA
 ------------------------------------------------------------------------------
 Cycle:     27
  WF centre and spread    1  (  0.000000, -0.000000, -0.000000 )     1.62273449
  WF centre and spread    2  (  0.000000,  0.000000,  0.000000 )     2.95868118
  WF centre and spread    3  ( -0.000000,  0.000000, -0.000000 )     2.95868113
  WF centre and spread    4  (  0.000000,  0.000000,  0.000000 )     2.95868108
  Sum of centres and spreads ( -0.000000,  0.000000,  0.000000 )    10.49877788
 
     27    -0.511E-11     0.0000017362       10.4987778780       0.17  <-- CONV
        O_D=      0.0000000 O_OD=      3.2984005 O_TOT=     10.4987779 <-- SPRD
 Delta: O_D=  0.7998762E-14 O_OD= -0.5119016E-11 O_TOT= -0.5110579E-11 <-- DLTA
 ------------------------------------------------------------------------------
 Cycle:     28
  WF centre and spread    1  (  0.000000, -0.000000, -0.000000 )     1.62273448
  WF centre and spread    2  (  0.000000,  0.000000,  0.000000 )     2.95868119
  WF centre and spread    3  ( -0.000000,  0.000000, -0.000000 )     2.95868113
  WF centre and spread    4  (  0.000000,  0.000000,  0.000000 )     2.95868108
  Sum of centres and spreads ( -0.000000,  0.000000,  0.000000 )    10.49877788
 
     28    -0.371E-12     0.0000012741       10.4987778780       0.17  <-- CONV
        O_D=      0.0000000 O_OD=      3.2984005 O_TOT=     10.4987779 <-- SPRD
 Delta: O_D=  0.1451546E-14 O_OD= -0.3734790E-12 O_TOT= -0.3712586E-12 <-- DLTA
 ------------------------------------------------------------------------------
 Cycle:     29
  WF centre and spread    1  (  0.000000, -0.000000, -0.000000 )     1.62273448
  WF centre and spread    2  (  0.000000,  0.000000,  0.000000 )     2.95868119
  WF centre and spread    3  ( -0.000000,  0.000000, -0.000000 )     2.95868113
  WF centre and spread    4  (  0.000000,  0.000000,  0.000000 )     2.95868108
  Sum of centres and spreads ( -0.000000,  0.000000,  0.000000 )    10.49877788
 
     29    -0.355E-13     0.0000012477       10.4987778780       0.18  <-- CONV
        O_D=      0.0000000 O_OD=      3.2984005 O_TOT=     10.4987779 <-- SPRD
 Delta: O_D= -0.4715901E-15 O_OD= -0.3330669E-13 O_TOT= -0.3552714E-13 <-- DLTA
 ------------------------------------------------------------------------------
 Cycle:     30
  WF centre and spread    1  (  0.000000, -0.000000, -0.000000 )     1.62273448
  WF centre and spread    2  (  0.000000,  0.000000,  0.000000 )     2.95868119
  WF centre and spread    3  ( -0.000000,  0.000000, -0.000000 )     2.95868113
  WF centre and spread    4  (  0.000000,  0.000000,  0.000000 )     2.95868108
  Sum of centres and spreads ( -0.000000,  0.000000,  0.000000 )    10.49877788
 
     30    -0.174E-12     0.0000012436       10.4987778780       0.18  <-- CONV
        O_D=      0.0000000 O_OD=      3.2984005 O_TOT=     10.4987779 <-- SPRD
 Delta: O_D= -0.2143096E-14 O_OD= -0.1736389E-12 O_TOT= -0.1740830E-12 <-- DLTA
 ------------------------------------------------------------------------------
 Cycle:     31
  WF centre and spread    1  (  0.000000, -0.000000, -0.000000 )     1.62273447
  WF centre and spread    2  (  0.000000,  0.000000,  0.000000 )     2.95868119
  WF centre and spread    3  ( -0.000000,  0.000000, -0.000000 )     2.95868114
  WF centre and spread    4  (  0.000000,  0.000000,  0.000000 )     2.95868108
  Sum of centres and spreads ( -0.000000,  0.000000,  0.000000 )    10.49877788
 
     31    -0.615E-12     0.0000012242       10.4987778780       0.19  <-- CONV
        O_D=      0.0000000 O_OD=      3.2984005 O_TOT=     10.4987779 <-- SPRD
 Delta: O_D= -0.5786855E-14 O_OD= -0.6075140E-12 O_TOT= -0.6146195E-12 <-- DLTA
 ------------------------------------------------------------------------------
 Cycle:     32
  WF centre and spread    1  (  0.000000, -0.000000, -0.000000 )     1.62273447
  WF centre and spread    2  (  0.000000,  0.000000,  0.000000 )     2.95868119
  WF centre and spread    3  ( -0.000000,  0.000000, -0.000000 )     2.95868114
  WF centre and spread    4  (  0.000000,  0.000000,  0.000000 )     2.95868108
  Sum of centres and spreads ( -0.000000,  0.000000,  0.000000 )    10.49877788
 
     32    -0.190E-12     0.0000011595       10.4987778780       0.20  <-- CONV
        O_D=      0.0000000 O_OD=      3.2984005 O_TOT=     10.4987779 <-- SPRD
 Delta: O_D= -0.1359153E-14 O_OD= -0.1896261E-12 O_TOT= -0.1900702E-12 <-- DLTA
 ------------------------------------------------------------------------------
 Cycle:     33
  WF centre and spread    1  (  0.000000, -0.000000, -0.000000 )     1.62273446
  WF centre and spread    2  (  0.000000,  0.000000,  0.000000 )     2.95868119
  WF centre and spread    3  ( -0.000000,  0.000000, -0.000000 )     2.95868114
  WF centre and spread    4  (  0.000000,  0.000000,  0.000000 )     2.95868109
  Sum of centres and spreads ( -0.000000,  0.000000,  0.000000 )    10.49877788
 
     33    -0.455E-12     0.0000011382       10.4987778780       0.20  <-- CONV
        O_D=      0.0000000 O_OD=      3.2984005 O_TOT=     10.4987779 <-- SPRD
 Delta: O_D= -0.2152151E-14 O_OD= -0.4511946E-12 O_TOT= -0.4547474E-12 <-- DLTA
 ------------------------------------------------------------------------------
 Cycle:     34
  WF centre and spread    1  (  0.000000, -0.000000, -0.000000 )     1.62273445
  WF centre and spread    2  (  0.000000,  0.000000,  0.000000 )     2.95868119
  WF centre and spread    3  ( -0.000000,  0.000000, -0.000000 )     2.95868114
  WF centre and spread    4  (  0.000000,  0.000000,  0.000000 )     2.95868109
  Sum of centres and spreads ( -0.000000,  0.000000,  0.000000 )    10.49877788
 
     34    -0.155E-12     0.0000010895       10.4987778780       0.21  <-- CONV
        O_D=      0.0000000 O_OD=      3.2984005 O_TOT=     10.4987779 <-- SPRD
 Delta: O_D= -0.4028524E-15 O_OD= -0.1558753E-12 O_TOT= -0.1545430E-12 <-- DLTA
 ------------------------------------------------------------------------------
 Cycle:     35
  WF centre and spread    1  (  0.000000, -0.000000, -0.000000 )     1.62273445
  WF centre and spread    2  (  0.000000,  0.000000,  0.000000 )     2.95868119
  WF centre and spread    3  ( -0.000000,  0.000000, -0.000000 )     2.95868114
  WF centre and spread    4  (  0.000000,  0.000000,  0.000000 )     2.95868109
  Sum of centres and spreads ( -0.000000,  0.000000,  0.000000 )    10.49877788
 
     35     0.533E-14     0.0000010743       10.4987778780       0.21  <-- CONV
        O_D=      0.0000000 O_OD=      3.2984005 O_TOT=     10.4987779 <-- SPRD
 Delta: O_D= -0.1066691E-16 O_OD=  0.6661338E-14 O_TOT=  0.5329071E-14 <-- DLTA
 ------------------------------------------------------------------------------
 Cycle:     36
  WF centre and spread    1  (  0.000000, -0.000000, -0.000000 )     1.62273445
  WF centre and spread    2  (  0.000000,  0.000000,  0.000000 )     2.95868119
  WF centre and spread    3  ( -0.000000,  0.000000, -0.000000 )     2.95868114
  WF centre and spread    4  (  0.000000,  0.000000,  0.000000 )     2.95868109
  Sum of centres and spreads ( -0.000000,  0.000000,  0.000000 )    10.49877788
 
     36    -0.835E-13     0.0000010730       10.4987778780       0.22  <-- CONV
        O_D=      0.0000000 O_OD=      3.2984005 O_TOT=     10.4987779 <-- SPRD
 Delta: O_D= -0.4144651E-16 O_OD= -0.8348877E-13 O_TOT= -0.8348877E-13 <-- DLTA
 ------------------------------------------------------------------------------
 Cycle:     37
  WF centre and spread    1  (  0.000000, -0.000000, -0.000000 )     1.62273445
  WF centre and spread    2  (  0.000000,  0.000000,  0.000000 )     2.95868120
  WF centre and spread    3  ( -0.000000,  0.000000, -0.000000 )     2.95868114
  WF centre and spread    4  (  0.000000,  0.000000,  0.000000 )     2.95868109
  Sum of centres and spreads ( -0.000000,  0.000000,  0.000000 )    10.49877788
 
     37    -0.279E-12     0.0000010680       10.4987778780       0.22  <-- CONV
        O_D=      0.0000000 O_OD=      3.2984005 O_TOT=     10.4987779 <-- SPRD
 Delta: O_D= -0.1855655E-15 O_OD= -0.2788880E-12 O_TOT= -0.2788880E-12 <-- DLTA
 ------------------------------------------------------------------------------
 Cycle:     38
  WF centre and spread    1  (  0.000000, -0.000000, -0.000000 )     1.62273444
  WF centre and spread    2  (  0.000000,  0.000000,  0.000000 )     2.95868120
  WF centre and spread    3  ( -0.000000,  0.000000, -0.000000 )     2.95868115
  WF centre and spread    4  (  0.000000,  0.000000,  0.000000 )     2.95868109
  Sum of centres and spreads ( -0.000000,  0.000000,  0.000000 )    10.49877788
 
     38    -0.277E-12     0.0000010425       10.4987778780       0.23  <-- CONV
        O_D=      0.0000000 O_OD=      3.2984005 O_TOT=     10.4987779 <-- SPRD
 Delta: O_D= -0.1496470E-15 O_OD= -0.2762235E-12 O_TOT= -0.2771117E-12 <-- DLTA
 ------------------------------------------------------------------------------
 Cycle:     39
  WF centre and spread    1  (  0.000000, -0.000000, -0.000000 )     1.62273444
  WF centre and spread    2  (  0.000000,  0.000000,  0.000000 )     2.95868120
  WF centre and spread    3  ( -0.000000,  0.000000, -0.000000 )     2.95868115
  WF centre and spread    4  (  0.000000,  0.000000,  0.000000 )     2.95868109
  Sum of centres and spreads ( -0.000000,  0.000000,  0.000000 )    10.49877788
 
     39    -0.362E-12     0.0000010154       10.4987778780       0.24  <-- CONV
        O_D=      0.0000000 O_OD=      3.2984005 O_TOT=     10.4987779 <-- SPRD
 Delta: O_D= -0.1291489E-15 O_OD= -0.3628209E-12 O_TOT= -0.3623768E-12 <-- DLTA
 ------------------------------------------------------------------------------
 Cycle:     40
  WF centre and spread    1  (  0.000000, -0.000000, -0.000000 )     1.62273442
  WF centre and spread    2  (  0.000000,  0.000000,  0.000000 )     2.95868120
  WF centre and spread    3  ( -0.000000,  0.000000, -0.000000 )     2.95868115
  WF centre and spread    4  (  0.000000,  0.000000,  0.000000 )     2.95868110
  Sum of centres and spreads ( -0.000000,  0.000000,  0.000000 )    10.49877788
 
     40    -0.529E-12     0.0000009789       10.4987778780       0.24  <-- CONV
        O_D=      0.0000000 O_OD=      3.2984005 O_TOT=     10.4987779 <-- SPRD
 Delta: O_D= -0.6641287E-16 O_OD= -0.5297984E-12 O_TOT= -0.5293543E-12 <-- DLTA
 ------------------------------------------------------------------------------
 Cycle:     41
  WF centre and spread    1  (  0.000000, -0.000000, -0.000000 )     1.62273442
  WF centre and spread    2  (  0.000000,  0.000000,  0.000000 )     2.95868120
  WF centre and spread    3  ( -0.000000,  0.000000, -0.000000 )     2.95868115
  WF centre and spread    4  (  0.000000,  0.000000,  0.000000 )     2.95868110
  Sum of centres and spreads ( -0.000000,  0.000000,  0.000000 )    10.49877788
 
     41    -0.533E-13     0.0000009220       10.4987778780       0.25  <-- CONV
        O_D=      0.0000000 O_OD=      3.2984005 O_TOT=     10.4987779 <-- SPRD
 Delta: O_D= -0.1831309E-19 O_OD= -0.5240253E-13 O_TOT= -0.5329071E-13 <-- DLTA
 ------------------------------------------------------------------------------
 Cycle:     42
  WF centre and spread    1  (  0.000000, -0.000000, -0.000000 )     1.62273442
  WF centre and spread    2  (  0.000000,  0.000000,  0.000000 )     2.95868120
  WF centre and spread    3  ( -0.000000,  0.000000, -0.000000 )     2.95868115
  WF centre and spread    4  (  0.000000,  0.000000,  0.000000 )     2.95868110
  Sum of centres and spreads ( -0.000000,  0.000000,  0.000000 )    10.49877788
 
     42    -0.462E-13     0.0000009200       10.4987778780       0.25  <-- CONV
        O_D=      0.0000000 O_OD=      3.2984005 O_TOT=     10.4987779 <-- SPRD
 Delta: O_D= -0.3535063E-19 O_OD= -0.4618528E-13 O_TOT= -0.4618528E-13 <-- DLTA
 ------------------------------------------------------------------------------
 Cycle:     43
  WF centre and spread    1  (  0.000000, -0.000000, -0.000000 )     1.62273442
  WF centre and spread    2  (  0.000000,  0.000000,  0.000000 )     2.95868121
  WF centre and spread    3  ( -0.000000,  0.000000, -0.000000 )     2.95868115
  WF centre and spread    4  (  0.000000,  0.000000,  0.000000 )     2.95868110
  Sum of centres and spreads ( -0.000000,  0.000000,  0.000000 )    10.49877788
 
     43    -0.764E-13     0.0000009162       10.4987778780       0.25  <-- CONV
        O_D=      0.0000000 O_OD=      3.2984005 O_TOT=     10.4987779 <-- SPRD
 Delta: O_D= -0.4987293E-19 O_OD= -0.7638334E-13 O_TOT= -0.7638334E-13 <-- DLTA
 ------------------------------------------------------------------------------
 Cycle:     44
  WF centre and spread    1  (  0.000000, -0.000000, -0.000000 )     1.62273442
  WF centre and spread    2  (  0.000000,  0.000000,  0.000000 )     2.95868121
  WF centre and spread    3  ( -0.000000,  0.000000, -0.000000 )     2.95868115
  WF centre and spread    4  (  0.000000,  0.000000,  0.000000 )     2.95868110
  Sum of centres and spreads ( -0.000000,  0.000000,  0.000000 )    10.49877788
 
     44    -0.480E-13     0.0000009104       10.4987778780       0.26  <-- CONV
        O_D=      0.0000000 O_OD=      3.2984005 O_TOT=     10.4987779 <-- SPRD
 Delta: O_D= -0.4558466E-19 O_OD= -0.4840572E-13 O_TOT= -0.4796163E-13 <-- DLTA
 ------------------------------------------------------------------------------
 Cycle:     45
  WF centre and spread    1  (  0.000000, -0.000000, -0.000000 )     1.62273442
  WF centre and spread    2  (  0.000000,  0.000000,  0.000000 )     2.95868121
  WF centre and spread    3  ( -0.000000,  0.000000, -0.000000 )     2.95868115
  WF centre and spread    4  (  0.000000,  0.000000,  0.000000 )     2.95868110
  Sum of centres and spreads ( -0.000000,  0.000000,  0.000000 )    10.49877788
 
     45    -0.959E-13     0.0000009048       10.4987778780       0.27  <-- CONV
        O_D=      0.0000000 O_OD=      3.2984005 O_TOT=     10.4987779 <-- SPRD
 Delta: O_D= -0.6948097E-19 O_OD= -0.9592327E-13 O_TOT= -0.9592327E-13 <-- DLTA
 ------------------------------------------------------------------------------
 Cycle:     46
  WF centre and spread    1  (  0.000000, -0.000000, -0.000000 )     1.62273440
  WF centre and spread    2  (  0.000000,  0.000000,  0.000000 )     2.95868121
  WF centre and spread    3  ( -0.000000,  0.000000, -0.000000 )     2.95868116
  WF centre and spread    4  (  0.000000,  0.000000,  0.000000 )     2.95868110
  Sum of centres and spreads ( -0.000000,  0.000000,  0.000000 )    10.49877788
 
     46    -0.535E-12     0.0000008954       10.4987778780       0.27  <-- CONV
        O_D=      0.0000000 O_OD=      3.2984005 O_TOT=     10.4987779 <-- SPRD
 Delta: O_D= -0.2903563E-18 O_OD= -0.5342393E-12 O_TOT= -0.5346834E-12 <-- DLTA
 ------------------------------------------------------------------------------
 Cycle:     47
  WF centre and spread    1  (  0.000000, -0.000000, -0.000000 )     1.62273440
  WF centre and spread    2  (  0.000000,  0.000000,  0.000000 )     2.95868121
  WF centre and spread    3  ( -0.000000,  0.000000, -0.000000 )     2.95868116
  WF centre and spread    4  (  0.000000,  0.000000,  0.000000 )     2.95868110
  Sum of centres and spreads ( -0.000000,  0.000000,  0.000000 )    10.49877788
 
     47    -0.551E-13     0.0000008354       10.4987778780       0.28  <-- CONV
        O_D=      0.0000000 O_OD=      3.2984005 O_TOT=     10.4987779 <-- SPRD
 Delta: O_D= -0.2353477E-20 O_OD= -0.5551115E-13 O_TOT= -0.5506706E-13 <-- DLTA
 ------------------------------------------------------------------------------
 Cycle:     48
  WF centre and spread    1  (  0.000000, -0.000000, -0.000000 )     1.62273440
  WF centre and spread    2  (  0.000000,  0.000000,  0.000000 )     2.95868121
  WF centre and spread    3  ( -0.000000,  0.000000, -0.000000 )     2.95868116
  WF centre and spread    4  (  0.000000,  0.000000,  0.000000 )     2.95868111
  Sum of centres and spreads ( -0.000000,  0.000000,  0.000000 )    10.49877788
 
     48    -0.480E-13     0.0000008337       10.4987778780       0.28  <-- CONV
        O_D=      0.0000000 O_OD=      3.2984005 O_TOT=     10.4987779 <-- SPRD
 Delta: O_D= -0.6787980E-20 O_OD= -0.4796163E-13 O_TOT= -0.4796163E-13 <-- DLTA
 ------------------------------------------------------------------------------
 Cycle:     49
  WF centre and spread    1  (  0.000000, -0.000000, -0.000000 )     1.62273439
  WF centre and spread    2  (  0.000000,  0.000000,  0.000000 )     2.95868121
  WF centre and spread    3  ( -0.000000,  0.000000, -0.000000 )     2.95868116
  WF centre and spread    4  (  0.000000,  0.000000,  0.000000 )     2.95868111
  Sum of centres and spreads ( -0.000000,  0.000000,  0.000000 )    10.49877788
 
     49    -0.359E-12     0.0000008286       10.4987778780       0.29  <-- CONV
        O_D=      0.0000000 O_OD=      3.2984005 O_TOT=     10.4987779 <-- SPRD
 Delta: O_D= -0.4509828E-19 O_OD= -0.3588241E-12 O_TOT= -0.3588241E-12 <-- DLTA
 ------------------------------------------------------------------------------
 Cycle:     50
  WF centre and spread    1  (  0.000000, -0.000000, -0.000000 )     1.62273439
  WF centre and spread    2  (  0.000000,  0.000000,  0.000000 )     2.95868121
  WF centre and spread    3  ( -0.000000,  0.000000, -0.000000 )     2.95868116
  WF centre and spread    4  (  0.000000,  0.000000,  0.000000 )     2.95868111
  Sum of centres and spreads ( -0.000000,  0.000000,  0.000000 )    10.49877788
 
     50    -0.622E-13     0.0000007896       10.4987778780       0.29  <-- CONV
        O_D=      0.0000000 O_OD=      3.2984005 O_TOT=     10.4987779 <-- SPRD
 Delta: O_D= -0.5937412E-20 O_OD= -0.6217249E-13 O_TOT= -0.6217249E-13 <-- DLTA
 ------------------------------------------------------------------------------
 Cycle:     51
  WF centre and spread    1  (  0.000000, -0.000000, -0.000000 )     1.62273439
  WF centre and spread    2  (  0.000000,  0.000000,  0.000000 )     2.95868122
  WF centre and spread    3  ( -0.000000,  0.000000, -0.000000 )     2.95868116
  WF centre and spread    4  (  0.000000,  0.000000,  0.000000 )     2.95868111
  Sum of centres and spreads ( -0.000000,  0.000000,  0.000000 )    10.49877788
 
     51    -0.728E-13     0.0000007834       10.4987778780       0.30  <-- CONV
        O_D=      0.0000000 O_OD=      3.2984005 O_TOT=     10.4987779 <-- SPRD
 Delta: O_D= -0.9762563E-20 O_OD= -0.7327472E-13 O_TOT= -0.7283063E-13 <-- DLTA
 ------------------------------------------------------------------------------
 Cycle:     52
  WF centre and spread    1  (  0.000000, -0.000000, -0.000000 )     1.62273437
  WF centre and spread    2  (  0.000000,  0.000000,  0.000000 )     2.95868122
  WF centre and spread    3  ( -0.000000,  0.000000, -0.000000 )     2.95868117
  WF centre and spread    4  (  0.000000,  0.000000,  0.000000 )     2.95868111
  Sum of centres and spreads ( -0.000000,  0.000000,  0.000000 )    10.49877788
 
     52    -0.631E-12     0.0000007725       10.4987778780       0.31  <-- CONV
        O_D=      0.0000000 O_OD=      3.2984005 O_TOT=     10.4987779 <-- SPRD
 Delta: O_D= -0.5039000E-19 O_OD= -0.6297185E-12 O_TOT= -0.6306067E-12 <-- DLTA
 ------------------------------------------------------------------------------
 Cycle:     53
  WF centre and spread    1  (  0.000000, -0.000000, -0.000000 )     1.62273437
  WF centre and spread    2  (  0.000000,  0.000000,  0.000000 )     2.95868122
  WF centre and spread    3  ( -0.000000,  0.000000, -0.000000 )     2.95868117
  WF centre and spread    4  (  0.000000,  0.000000,  0.000000 )     2.95868111
  Sum of centres and spreads ( -0.000000,  0.000000,  0.000000 )    10.49877788
 
     53    -0.284E-13     0.0000006987       10.4987778780       0.31  <-- CONV
        O_D=      0.0000000 O_OD=      3.2984005 O_TOT=     10.4987779 <-- SPRD
 Delta: O_D= -0.1114482E-20 O_OD= -0.2842171E-13 O_TOT= -0.2842171E-13 <-- DLTA
 ------------------------------------------------------------------------------
 Cycle:     54
  WF centre and spread    1  (  0.000000, -0.000000, -0.000000 )     1.62273437
  WF centre and spread    2  (  0.000000,  0.000000,  0.000000 )     2.95868122
  WF centre and spread    3  ( -0.000000,  0.000000, -0.000000 )     2.95868117
  WF centre and spread    4  (  0.000000,  0.000000,  0.000000 )     2.95868112
  Sum of centres and spreads ( -0.000000,  0.000000,  0.000000 )    10.49877788
 
     54    -0.444E-13     0.0000006973       10.4987778780       0.32  <-- CONV
        O_D=      0.0000000 O_OD=      3.2984005 O_TOT=     10.4987779 <-- SPRD
 Delta: O_D= -0.8417629E-20 O_OD= -0.4440892E-13 O_TOT= -0.4440892E-13 <-- DLTA
 ------------------------------------------------------------------------------
 Cycle:     55
  WF centre and spread    1  (  0.000000, -0.000000, -0.000000 )     1.62273437
  WF centre and spread    2  (  0.000000,  0.000000,  0.000000 )     2.95868122
  WF centre and spread    3  ( -0.000000,  0.000000, -0.000000 )     2.95868117
  WF centre and spread    4  (  0.000000,  0.000000,  0.000000 )     2.95868112
  Sum of centres and spreads ( -0.000000,  0.000000,  0.000000 )    10.49877788
 
     55    -0.373E-13     0.0000006867       10.4987778780       0.32  <-- CONV
        O_D=      0.0000000 O_OD=      3.2984005 O_TOT=     10.4987779 <-- SPRD
 Delta: O_D= -0.3253207E-20 O_OD= -0.3730349E-13 O_TOT= -0.3730349E-13 <-- DLTA
 ------------------------------------------------------------------------------
 Cycle:     56
  WF centre and spread    1  (  0.000000, -0.000000, -0.000000 )     1.62273437
  WF centre and spread    2  (  0.000000,  0.000000,  0.000000 )     2.95868122
  WF centre and spread    3  ( -0.000000,  0.000000, -0.000000 )     2.95868117
  WF centre and spread    4  (  0.000000,  0.000000,  0.000000 )     2.95868112
  Sum of centres and spreads ( -0.000000,  0.000000,  0.000000 )    10.49877788
 
     56    -0.515E-13     0.0000006826       10.4987778780       0.33  <-- CONV
        O_D=      0.0000000 O_OD=      3.2984005 O_TOT=     10.4987779 <-- SPRD
 Delta: O_D= -0.3042987E-20 O_OD= -0.5107026E-13 O_TOT= -0.5151435E-13 <-- DLTA
 ------------------------------------------------------------------------------
 Cycle:     57
  WF centre and spread    1  (  0.000000, -0.000000, -0.000000 )     1.62273437
  WF centre and spread    2  (  0.000000,  0.000000,  0.000000 )     2.95868122
  WF centre and spread    3  ( -0.000000,  0.000000, -0.000000 )     2.95868117
  WF centre and spread    4  (  0.000000,  0.000000,  0.000000 )     2.95868112
  Sum of centres and spreads ( -0.000000,  0.000000,  0.000000 )    10.49877788
 
     57    -0.497E-13     0.0000006788       10.4987778780       0.34  <-- CONV
        O_D=      0.0000000 O_OD=      3.2984005 O_TOT=     10.4987779 <-- SPRD
 Delta: O_D= -0.8252643E-20 O_OD= -0.5107026E-13 O_TOT= -0.4973799E-13 <-- DLTA
 ------------------------------------------------------------------------------
 Cycle:     58
  WF centre and spread    1  (  0.000000, -0.000000, -0.000000 )     1.62273436
  WF centre and spread    2  (  0.000000,  0.000000,  0.000000 )     2.95868122
  WF centre and spread    3  ( -0.000000,  0.000000, -0.000000 )     2.95868117
  WF centre and spread    4  (  0.000000,  0.000000,  0.000000 )     2.95868112
  Sum of centres and spreads ( -0.000000,  0.000000,  0.000000 )    10.49877788
 
     58    -0.977E-13     0.0000006684       10.4987778780       0.34  <-- CONV
        O_D=      0.0000000 O_OD=      3.2984005 O_TOT=     10.4987779 <-- SPRD
 Delta: O_D= -0.6279027E-20 O_OD= -0.9681145E-13 O_TOT= -0.9769963E-13 <-- DLTA
 ------------------------------------------------------------------------------
 Cycle:     59
  WF centre and spread    1  (  0.000000, -0.000000, -0.000000 )     1.62273436
  WF centre and spread    2  (  0.000000,  0.000000,  0.000000 )     2.95868122
  WF centre and spread    3  ( -0.000000,  0.000000, -0.000000 )     2.95868117
  WF centre and spread    4  (  0.000000,  0.000000,  0.000000 )     2.95868112
  Sum of centres and spreads ( -0.000000,  0.000000,  0.000000 )    10.49877788
 
     59    -0.888E-14     0.0000006606       10.4987778780       0.35  <-- CONV
        O_D=      0.0000000 O_OD=      3.2984005 O_TOT=     10.4987779 <-- SPRD
 Delta: O_D= -0.1869977E-21 O_OD= -0.9769963E-14 O_TOT= -0.8881784E-14 <-- DLTA
 ------------------------------------------------------------------------------
 Cycle:     60
  WF centre and spread    1  (  0.000000, -0.000000, -0.000000 )     1.62273436
  WF centre and spread    2  (  0.000000,  0.000000,  0.000000 )     2.95868122
  WF centre and spread    3  ( -0.000000,  0.000000, -0.000000 )     2.95868117
  WF centre and spread    4  (  0.000000,  0.000000,  0.000000 )     2.95868112
  Sum of centres and spreads ( -0.000000,  0.000000,  0.000000 )    10.49877788
 
     60     0.107E-13     0.0000006604       10.4987778780       0.36  <-- CONV
        O_D=      0.0000000 O_OD=      3.2984005 O_TOT=     10.4987779 <-- SPRD
 Delta: O_D= -0.8657221E-21 O_OD=  0.1154632E-13 O_TOT=  0.1065814E-13 <-- DLTA
 ------------------------------------------------------------------------------
 Cycle:     61
  WF centre and spread    1  (  0.000000, -0.000000, -0.000000 )     1.62273436
  WF centre and spread    2  (  0.000000,  0.000000,  0.000000 )     2.95868122
  WF centre and spread    3  ( -0.000000,  0.000000, -0.000000 )     2.95868117
  WF centre and spread    4  (  0.000000,  0.000000,  0.000000 )     2.95868112
  Sum of centres and spreads ( -0.000000,  0.000000,  0.000000 )    10.49877788
 
     61    -0.338E-13     0.0000006593       10.4987778780       0.36  <-- CONV
        O_D=      0.0000000 O_OD=      3.2984005 O_TOT=     10.4987779 <-- SPRD
 Delta: O_D= -0.3274286E-20 O_OD= -0.3463896E-13 O_TOT= -0.3375078E-13 <-- DLTA
 ------------------------------------------------------------------------------
 Cycle:     62
  WF centre and spread    1  (  0.000000, -0.000000, -0.000000 )     1.62273436
  WF centre and spread    2  (  0.000000,  0.000000,  0.000000 )     2.95868122
  WF centre and spread    3  ( -0.000000,  0.000000, -0.000000 )     2.95868117
  WF centre and spread    4  (  0.000000,  0.000000,  0.000000 )     2.95868112
  Sum of centres and spreads ( -0.000000,  0.000000,  0.000000 )    10.49877788
 
     62    -0.533E-13     0.0000006554       10.4987778780       0.37  <-- CONV
        O_D=      0.0000000 O_OD=      3.2984005 O_TOT=     10.4987779 <-- SPRD
 Delta: O_D= -0.5190777E-20 O_OD= -0.5329071E-13 O_TOT= -0.5329071E-13 <-- DLTA
 ------------------------------------------------------------------------------
 Cycle:     63
  WF centre and spread    1  (  0.000000, -0.000000, -0.000000 )     1.62273436
  WF centre and spread    2  (  0.000000,  0.000000,  0.000000 )     2.95868123
  WF centre and spread    3  ( -0.000000,  0.000000, -0.000000 )     2.95868117
  WF centre and spread    4  (  0.000000,  0.000000,  0.000000 )     2.95868112
  Sum of centres and spreads ( -0.000000,  0.000000,  0.000000 )    10.49877788
 
     63    -0.799E-13     0.0000006491       10.4987778780       0.37  <-- CONV
        O_D=      0.0000000 O_OD=      3.2984005 O_TOT=     10.4987779 <-- SPRD
 Delta: O_D= -0.6490824E-20 O_OD= -0.7993606E-13 O_TOT= -0.7993606E-13 <-- DLTA
 ------------------------------------------------------------------------------
 Cycle:     64
  WF centre and spread    1  (  0.000000, -0.000000, -0.000000 )     1.62273436
  WF centre and spread    2  (  0.000000,  0.000000,  0.000000 )     2.95868123
  WF centre and spread    3  ( -0.000000,  0.000000, -0.000000 )     2.95868117
  WF centre and spread    4  (  0.000000,  0.000000,  0.000000 )     2.95868112
  Sum of centres and spreads ( -0.000000,  0.000000,  0.000000 )    10.49877788
 
     64     0.391E-13     0.0000006413       10.4987778780       0.38  <-- CONV
        O_D=      0.0000000 O_OD=      3.2984005 O_TOT=     10.4987779 <-- SPRD
 Delta: O_D= -0.2790650E-20 O_OD=  0.3907985E-13 O_TOT=  0.3907985E-13 <-- DLTA
 ------------------------------------------------------------------------------
 Cycle:     65
  WF centre and spread    1  (  0.000000, -0.000000, -0.000000 )     1.62273436
  WF centre and spread    2  (  0.000000,  0.000000,  0.000000 )     2.95868123
  WF centre and spread    3  ( -0.000000,  0.000000, -0.000000 )     2.95868117
  WF centre and spread    4  (  0.000000,  0.000000,  0.000000 )     2.95868112
  Sum of centres and spreads ( -0.000000,  0.000000,  0.000000 )    10.49877788
 
     65    -0.107E-13     0.0000006380       10.4987778780       0.39  <-- CONV
        O_D=      0.0000000 O_OD=      3.2984005 O_TOT=     10.4987779 <-- SPRD
 Delta: O_D= -0.1091277E-20 O_OD= -0.9325873E-14 O_TOT= -0.1065814E-13 <-- DLTA
 ------------------------------------------------------------------------------
 Cycle:     66
  WF centre and spread    1  (  0.000000, -0.000000, -0.000000 )     1.62273436
  WF centre and spread    2  (  0.000000,  0.000000,  0.000000 )     2.95868123
  WF centre and spread    3  ( -0.000000,  0.000000, -0.000000 )     2.95868117
  WF centre and spread    4  (  0.000000,  0.000000,  0.000000 )     2.95868112
  Sum of centres and spreads ( -0.000000,  0.000000,  0.000000 )    10.49877788
 
     66    -0.284E-13     0.0000006367       10.4987778780       0.39  <-- CONV
        O_D=      0.0000000 O_OD=      3.2984005 O_TOT=     10.4987779 <-- SPRD
 Delta: O_D= -0.2177266E-20 O_OD= -0.2975398E-13 O_TOT= -0.2842171E-13 <-- DLTA
 ------------------------------------------------------------------------------
 Cycle:     67
  WF centre and spread    1  (  0.000000, -0.000000, -0.000000 )     1.62273435
  WF centre and spread    2  (  0.000000,  0.000000,  0.000000 )     2.95868123
  WF centre and spread    3  ( -0.000000,  0.000000, -0.000000 )     2.95868117
  WF centre and spread    4  (  0.000000,  0.000000,  0.000000 )     2.95868112
  Sum of centres and spreads ( -0.000000,  0.000000,  0.000000 )    10.49877788
 
     67    -0.144E-12     0.0000006342       10.4987778780       0.40  <-- CONV
        O_D=      0.0000000 O_OD=      3.2984005 O_TOT=     10.4987779 <-- SPRD
 Delta: O_D= -0.1512980E-19 O_OD= -0.1429967E-12 O_TOT= -0.1438849E-12 <-- DLTA
 ------------------------------------------------------------------------------
 Cycle:     68
  WF centre and spread    1  (  0.000000, -0.000000, -0.000000 )     1.62273435
  WF centre and spread    2  (  0.000000,  0.000000,  0.000000 )     2.95868123
  WF centre and spread    3  ( -0.000000,  0.000000, -0.000000 )     2.95868117
  WF centre and spread    4  (  0.000000,  0.000000,  0.000000 )     2.95868112
  Sum of centres and spreads ( -0.000000,  0.000000,  0.000000 )    10.49877788
 
     68    -0.426E-13     0.0000006166       10.4987778780       0.40  <-- CONV
        O_D=      0.0000000 O_OD=      3.2984005 O_TOT=     10.4987779 <-- SPRD
 Delta: O_D= -0.4161473E-20 O_OD= -0.4352074E-13 O_TOT= -0.4263256E-13 <-- DLTA
 ------------------------------------------------------------------------------
 Cycle:     69
  WF centre and spread    1  (  0.000000, -0.000000, -0.000000 )     1.62273435
  WF centre and spread    2  (  0.000000,  0.000000,  0.000000 )     2.95868123
  WF centre and spread    3  ( -0.000000,  0.000000, -0.000000 )     2.95868118
  WF centre and spread    4  (  0.000000,  0.000000,  0.000000 )     2.95868112
  Sum of centres and spreads ( -0.000000,  0.000000,  0.000000 )    10.49877788
 
     69    -0.302E-13     0.0000006118       10.4987778780       0.41  <-- CONV
        O_D=      0.0000000 O_OD=      3.2984005 O_TOT=     10.4987779 <-- SPRD
 Delta: O_D= -0.5710561E-20 O_OD= -0.3064216E-13 O_TOT= -0.3019807E-13 <-- DLTA
 ------------------------------------------------------------------------------
 Cycle:     70
  WF centre and spread    1  (  0.000000, -0.000000, -0.000000 )     1.62273435
  WF centre and spread    2  (  0.000000,  0.000000,  0.000000 )     2.95868123
  WF centre and spread    3  ( -0.000000,  0.000000, -0.000000 )     2.95868118
  WF centre and spread    4  (  0.000000,  0.000000,  0.000000 )     2.95868112
  Sum of centres and spreads ( -0.000000,  0.000000,  0.000000 )    10.49877788
 
     70    -0.178E-12     0.0000006052       10.4987778780       0.41  <-- CONV
        O_D=      0.0000000 O_OD=      3.2984005 O_TOT=     10.4987779 <-- SPRD
 Delta: O_D= -0.2239511E-19 O_OD= -0.1767475E-12 O_TOT= -0.1776357E-12 <-- DLTA
 ------------------------------------------------------------------------------
 Cycle:     71
  WF centre and spread    1  (  0.000000, -0.000000, -0.000000 )     1.62273435
  WF centre and spread    2  (  0.000000,  0.000000,  0.000000 )     2.95868123
  WF centre and spread    3  ( -0.000000,  0.000000, -0.000000 )     2.95868118
  WF centre and spread    4  (  0.000000,  0.000000,  0.000000 )     2.95868112
  Sum of centres and spreads ( -0.000000,  0.000000,  0.000000 )    10.49877788
 
     71    -0.107E-13     0.0000005797       10.4987778780       0.42  <-- CONV
        O_D=      0.0000000 O_OD=      3.2984005 O_TOT=     10.4987779 <-- SPRD
 Delta: O_D= -0.1091867E-20 O_OD= -0.1110223E-13 O_TOT= -0.1065814E-13 <-- DLTA
 ------------------------------------------------------------------------------
 Cycle:     72
  WF centre and spread    1  (  0.000000, -0.000000, -0.000000 )     1.62273435
  WF centre and spread    2  (  0.000000,  0.000000,  0.000000 )     2.95868123
  WF centre and spread    3  ( -0.000000,  0.000000, -0.000000 )     2.95868118
  WF centre and spread    4  (  0.000000,  0.000000,  0.000000 )     2.95868112
  Sum of centres and spreads ( -0.000000,  0.000000,  0.000000 )    10.49877788
 
     72    -0.195E-13     0.0000005786       10.4987778780       0.42  <-- CONV
        O_D=      0.0000000 O_OD=      3.2984005 O_TOT=     10.4987779 <-- SPRD
 Delta: O_D= -0.2181309E-20 O_OD= -0.1909584E-13 O_TOT= -0.1953993E-13 <-- DLTA
 ------------------------------------------------------------------------------
 Cycle:     73
  WF centre and spread    1  (  0.000000, -0.000000, -0.000000 )     1.62273435
  WF centre and spread    2  (  0.000000,  0.000000,  0.000000 )     2.95868123
  WF centre and spread    3  ( -0.000000,  0.000000, -0.000000 )     2.95868118
  WF centre and spread    4  (  0.000000,  0.000000,  0.000000 )     2.95868112
  Sum of centres and spreads ( -0.000000,  0.000000,  0.000000 )    10.49877788
 
     73    -0.711E-14     0.0000005763       10.4987778780       0.43  <-- CONV
        O_D=      0.0000000 O_OD=      3.2984005 O_TOT=     10.4987779 <-- SPRD
 Delta: O_D= -0.9194047E-21 O_OD= -0.7549517E-14 O_TOT= -0.7105427E-14 <-- DLTA
 ------------------------------------------------------------------------------
 Cycle:     74
  WF centre and spread    1  (  0.000000, -0.000000, -0.000000 )     1.62273434
  WF centre and spread    2  (  0.000000,  0.000000,  0.000000 )     2.95868123
  WF centre and spread    3  ( -0.000000,  0.000000, -0.000000 )     2.95868118
  WF centre and spread    4  (  0.000000,  0.000000,  0.000000 )     2.95868112
  Sum of centres and spreads ( -0.000000,  0.000000,  0.000000 )    10.49877788
 
     74     0.231E-13     0.0000005753       10.4987778780       0.44  <-- CONV
        O_D=      0.0000000 O_OD=      3.2984005 O_TOT=     10.4987779 <-- SPRD
 Delta: O_D= -0.2626956E-20 O_OD=  0.2264855E-13 O_TOT=  0.2309264E-13 <-- DLTA
 ------------------------------------------------------------------------------
 Cycle:     75
  WF centre and spread    1  (  0.000000, -0.000000, -0.000000 )     1.62273434
  WF centre and spread    2  (  0.000000,  0.000000,  0.000000 )     2.95868123
  WF centre and spread    3  ( -0.000000,  0.000000, -0.000000 )     2.95868118
  WF centre and spread    4  (  0.000000,  0.000000,  0.000000 )     2.95868112
  Sum of centres and spreads ( -0.000000,  0.000000,  0.000000 )    10.49877788
 
     75    -0.675E-13     0.0000005725       10.4987778780       0.44  <-- CONV
        O_D=      0.0000000 O_OD=      3.2984005 O_TOT=     10.4987779 <-- SPRD
 Delta: O_D= -0.5390603E-20 O_OD= -0.6616929E-13 O_TOT= -0.6750156E-13 <-- DLTA
 ------------------------------------------------------------------------------
 Cycle:     76
  WF centre and spread    1  (  0.000000, -0.000000, -0.000000 )     1.62273434
  WF centre and spread    2  (  0.000000,  0.000000,  0.000000 )     2.95868123
  WF centre and spread    3  ( -0.000000,  0.000000, -0.000000 )     2.95868118
  WF centre and spread    4  (  0.000000,  0.000000,  0.000000 )     2.95868113
  Sum of centres and spreads ( -0.000000,  0.000000,  0.000000 )    10.49877788
 
     76    -0.462E-13     0.0000005669       10.4987778780       0.44  <-- CONV
        O_D=      0.0000000 O_OD=      3.2984005 O_TOT=     10.4987779 <-- SPRD
 Delta: O_D= -0.6379089E-20 O_OD= -0.4574119E-13 O_TOT= -0.4618528E-13 <-- DLTA
 ------------------------------------------------------------------------------
 Cycle:     77
  WF centre and spread    1  (  0.000000, -0.000000, -0.000000 )     1.62273434
  WF centre and spread    2  (  0.000000,  0.000000,  0.000000 )     2.95868123
  WF centre and spread    3  ( -0.000000,  0.000000, -0.000000 )     2.95868118
  WF centre and spread    4  (  0.000000,  0.000000,  0.000000 )     2.95868113
  Sum of centres and spreads ( -0.000000,  0.000000,  0.000000 )    10.49877788
 
     77    -0.178E-13     0.0000005602       10.4987778780       0.45  <-- CONV
        O_D=      0.0000000 O_OD=      3.2984005 O_TOT=     10.4987779 <-- SPRD
 Delta: O_D= -0.2014109E-21 O_OD= -0.1953993E-13 O_TOT= -0.1776357E-13 <-- DLTA
 ------------------------------------------------------------------------------
 Cycle:     78
  WF centre and spread    1  (  0.000000, -0.000000, -0.000000 )     1.62273434
  WF centre and spread    2  (  0.000000,  0.000000,  0.000000 )     2.95868123
  WF centre and spread    3  ( -0.000000,  0.000000, -0.000000 )     2.95868118
  WF centre and spread    4  (  0.000000,  0.000000,  0.000000 )     2.95868113
  Sum of centres and spreads ( -0.000000,  0.000000,  0.000000 )    10.49877788
 
     78     0.178E-13     0.0000005600       10.4987778780       0.46  <-- CONV
        O_D=      0.0000000 O_OD=      3.2984005 O_TOT=     10.4987779 <-- SPRD
 Delta: O_D= -0.1096253E-20 O_OD=  0.1909584E-13 O_TOT=  0.1776357E-13 <-- DLTA
 ------------------------------------------------------------------------------
 Cycle:     79
  WF centre and spread    1  (  0.000000, -0.000000, -0.000000 )     1.62273434
  WF centre and spread    2  (  0.000000,  0.000000,  0.000000 )     2.95868123
  WF centre and spread    3  ( -0.000000,  0.000000, -0.000000 )     2.95868118
  WF centre and spread    4  (  0.000000,  0.000000,  0.000000 )     2.95868113
  Sum of centres and spreads ( -0.000000,  0.000000,  0.000000 )    10.49877788
 
     79    -0.462E-13     0.0000005589       10.4987778780       0.47  <-- CONV
        O_D=      0.0000000 O_OD=      3.2984005 O_TOT=     10.4987779 <-- SPRD
 Delta: O_D= -0.3278448E-20 O_OD= -0.4707346E-13 O_TOT= -0.4618528E-13 <-- DLTA
 ------------------------------------------------------------------------------
 Cycle:     80
  WF centre and spread    1  (  0.000000, -0.000000, -0.000000 )     1.62273434
  WF centre and spread    2  (  0.000000,  0.000000,  0.000000 )     2.95868123
  WF centre and spread    3  ( -0.000000,  0.000000, -0.000000 )     2.95868118
  WF centre and spread    4  (  0.000000,  0.000000,  0.000000 )     2.95868113
  Sum of centres and spreads ( -0.000000,  0.000000,  0.000000 )    10.49877788
 
     80    -0.355E-14     0.0000005556       10.4987778780       0.48  <-- CONV
        O_D=      0.0000000 O_OD=      3.2984005 O_TOT=     10.4987779 <-- SPRD
 Delta: O_D= -0.2040092E-20 O_OD= -0.3996803E-14 O_TOT= -0.3552714E-14 <-- DLTA
 ------------------------------------------------------------------------------
 Cycle:     81
  WF centre and spread    1  (  0.000000, -0.000000, -0.000000 )     1.62273434
  WF centre and spread    2  (  0.000000,  0.000000,  0.000000 )     2.95868123
  WF centre and spread    3  ( -0.000000,  0.000000, -0.000000 )     2.95868118
  WF centre and spread    4  (  0.000000,  0.000000,  0.000000 )     2.95868113
  Sum of centres and spreads ( -0.000000,  0.000000,  0.000000 )    10.49877788
 
     81    -0.533E-13     0.0000005535       10.4987778780       0.48  <-- CONV
        O_D=      0.0000000 O_OD=      3.2984005 O_TOT=     10.4987779 <-- SPRD
 Delta: O_D= -0.5401566E-20 O_OD= -0.5329071E-13 O_TOT= -0.5329071E-13 <-- DLTA
 ------------------------------------------------------------------------------
 Cycle:     82
  WF centre and spread    1  (  0.000000, -0.000000, -0.000000 )     1.62273434
  WF centre and spread    2  (  0.000000,  0.000000,  0.000000 )     2.95868123
  WF centre and spread    3  ( -0.000000,  0.000000, -0.000000 )     2.95868118
  WF centre and spread    4  (  0.000000,  0.000000,  0.000000 )     2.95868113
  Sum of centres and spreads ( -0.000000,  0.000000,  0.000000 )    10.49877788
 
     82    -0.213E-13     0.0000005481       10.4987778780       0.49  <-- CONV
        O_D=      0.0000000 O_OD=      3.2984005 O_TOT=     10.4987779 <-- SPRD
 Delta: O_D= -0.4312235E-20 O_OD= -0.1953993E-13 O_TOT= -0.2131628E-13 <-- DLTA
 ------------------------------------------------------------------------------
 Cycle:     83
  WF centre and spread    1  (  0.000000, -0.000000, -0.000000 )     1.62273434
  WF centre and spread    2  (  0.000000,  0.000000,  0.000000 )     2.95868123
  WF centre and spread    3  ( -0.000000,  0.000000, -0.000000 )     2.95868118
  WF centre and spread    4  (  0.000000,  0.000000,  0.000000 )     2.95868113
  Sum of centres and spreads ( -0.000000,  0.000000,  0.000000 )    10.49877788
 
     83    -0.124E-13     0.0000005437       10.4987778780       0.49  <-- CONV
        O_D=      0.0000000 O_OD=      3.2984005 O_TOT=     10.4987779 <-- SPRD
 Delta: O_D= -0.1099107E-20 O_OD= -0.1376677E-13 O_TOT= -0.1243450E-13 <-- DLTA
 ------------------------------------------------------------------------------
 Cycle:     84
  WF centre and spread    1  (  0.000000, -0.000000, -0.000000 )     1.62273434
  WF centre and spread    2  (  0.000000,  0.000000,  0.000000 )     2.95868123
  WF centre and spread    3  ( -0.000000,  0.000000, -0.000000 )     2.95868118
  WF centre and spread    4  (  0.000000,  0.000000,  0.000000 )     2.95868113
  Sum of centres and spreads ( -0.000000,  0.000000,  0.000000 )    10.49877788
 
     84     0.533E-14     0.0000005427       10.4987778780       0.50  <-- CONV
        O_D=      0.0000000 O_OD=      3.2984005 O_TOT=     10.4987779 <-- SPRD
 Delta: O_D= -0.5039499E-21 O_OD=  0.5773160E-14 O_TOT=  0.5329071E-14 <-- DLTA
 ------------------------------------------------------------------------------
 Cycle:     85
  WF centre and spread    1  (  0.000000, -0.000000, -0.000000 )     1.62273434
  WF centre and spread    2  (  0.000000,  0.000000,  0.000000 )     2.95868123
  WF centre and spread    3  ( -0.000000,  0.000000, -0.000000 )     2.95868118
  WF centre and spread    4  (  0.000000,  0.000000,  0.000000 )     2.95868113
[...]
 ------------------------------------------------------------------------------
 Cycle:    277
  WF centre and spread    1  (  0.000000, -0.000000, -0.000000 )     1.62273426
  WF centre and spread    2  (  0.000000,  0.000000,  0.000000 )     2.95868126
  WF centre and spread    3  ( -0.000000,  0.000000, -0.000000 )     2.95868121
  WF centre and spread    4  (  0.000000,  0.000000,  0.000000 )     2.95868115
  Sum of centres and spreads ( -0.000000,  0.000000,  0.000000 )    10.49877788
 
    277    -0.124E-13     0.0000002114       10.4987778780       1.54  <-- CONV
        O_D=      0.0000000 O_OD=      3.2984005 O_TOT=     10.4987779 <-- SPRD
 Delta: O_D= -0.3688906E-20 O_OD= -0.1243450E-13 O_TOT= -0.1243450E-13 <-- DLTA
 ------------------------------------------------------------------------------
 Cycle:    278
  WF centre and spread    1  (  0.000000, -0.000000, -0.000000 )     1.62273426
  WF centre and spread    2  (  0.000000,  0.000000,  0.000000 )     2.95868126
  WF centre and spread    3  ( -0.000000,  0.000000, -0.000000 )     2.95868121
  WF centre and spread    4  (  0.000000,  0.000000,  0.000000 )     2.95868115
  Sum of centres and spreads ( -0.000000,  0.000000,  0.000000 )    10.49877788
 
    278    -0.231E-13     0.0000002101       10.4987778780       1.55  <-- CONV
        O_D=      0.0000000 O_OD=      3.2984005 O_TOT=     10.4987779 <-- SPRD
 Delta: O_D= -0.4874180E-20 O_OD= -0.2220446E-13 O_TOT= -0.2309264E-13 <-- DLTA
 ------------------------------------------------------------------------------
 Cycle:    279
  WF centre and spread    1  (  0.000000, -0.000000, -0.000000 )     1.62273426
  WF centre and spread    2  (  0.000000,  0.000000,  0.000000 )     2.95868126
  WF centre and spread    3  ( -0.000000,  0.000000, -0.000000 )     2.95868121
  WF centre and spread    4  (  0.000000,  0.000000,  0.000000 )     2.95868115
  Sum of centres and spreads ( -0.000000,  0.000000,  0.000000 )    10.49877788
 
    279     0.124E-13     0.0000002085       10.4987778780       1.56  <-- CONV
        O_D=      0.0000000 O_OD=      3.2984005 O_TOT=     10.4987779 <-- SPRD
 Delta: O_D= -0.4681671E-20 O_OD=  0.1243450E-13 O_TOT=  0.1243450E-13 <-- DLTA
 ------------------------------------------------------------------------------
 Cycle:    280
  WF centre and spread    1  (  0.000000, -0.000000, -0.000000 )     1.62273426
  WF centre and spread    2  (  0.000000,  0.000000,  0.000000 )     2.95868126
  WF centre and spread    3  ( -0.000000,  0.000000, -0.000000 )     2.95868121
  WF centre and spread    4  (  0.000000,  0.000000,  0.000000 )     2.95868115
  Sum of centres and spreads ( -0.000000,  0.000000,  0.000000 )    10.49877788
 
    280    -0.320E-13     0.0000002069       10.4987778780       1.56  <-- CONV
        O_D=      0.0000000 O_OD=      3.2984005 O_TOT=     10.4987779 <-- SPRD
 Delta: O_D= -0.7170458E-20 O_OD= -0.3241851E-13 O_TOT= -0.3197442E-13 <-- DLTA
 ------------------------------------------------------------------------------
 Cycle:    281
  WF centre and spread    1  (  0.000000, -0.000000, -0.000000 )     1.62273426
  WF centre and spread    2  (  0.000000,  0.000000,  0.000000 )     2.95868126
  WF centre and spread    3  ( -0.000000,  0.000000, -0.000000 )     2.95868121
  WF centre and spread    4  (  0.000000,  0.000000,  0.000000 )     2.95868115
  Sum of centres and spreads ( -0.000000,  0.000000,  0.000000 )    10.49877788
 
    281    -0.888E-14     0.0000002045       10.4987778780       1.56  <-- CONV
        O_D=      0.0000000 O_OD=      3.2984005 O_TOT=     10.4987779 <-- SPRD
 Delta: O_D= -0.1234537E-20 O_OD= -0.9325873E-14 O_TOT= -0.8881784E-14 <-- DLTA
 ------------------------------------------------------------------------------
 Cycle:    282
  WF centre and spread    1  (  0.000000, -0.000000, -0.000000 )     1.62273426
  WF centre and spread    2  (  0.000000,  0.000000,  0.000000 )     2.95868126
  WF centre and spread    3  ( -0.000000,  0.000000, -0.000000 )     2.95868121
  WF centre and spread    4  (  0.000000,  0.000000,  0.000000 )     2.95868115
  Sum of centres and spreads ( -0.000000,  0.000000,  0.000000 )    10.49877788
 
    282     0.000E+00     0.0000002041       10.4987778780       1.57  <-- CONV
        O_D=      0.0000000 O_OD=      3.2984005 O_TOT=     10.4987779 <-- SPRD
 Delta: O_D= -0.1896135E-21 O_OD=  0.8881784E-15 O_TOT=  0.0000000E+00 <-- DLTA
 ------------------------------------------------------------------------------
 Cycle:    283
  WF centre and spread    1  (  0.000000, -0.000000, -0.000000 )     1.62273426
  WF centre and spread    2  (  0.000000,  0.000000,  0.000000 )     2.95868126
  WF centre and spread    3  ( -0.000000,  0.000000, -0.000000 )     2.95868121
  WF centre and spread    4  (  0.000000,  0.000000,  0.000000 )     2.95868115
  Sum of centres and spreads ( -0.000000,  0.000000,  0.000000 )    10.49877788
 
    283     0.515E-13     0.0000002040       10.4987778780       1.58  <-- CONV
        O_D=      0.0000000 O_OD=      3.2984005 O_TOT=     10.4987779 <-- SPRD
 Delta: O_D= -0.2068786E-21 O_OD=  0.5062617E-13 O_TOT=  0.5151435E-13 <-- DLTA
 ------------------------------------------------------------------------------
 Cycle:    284
  WF centre and spread    1  (  0.000000, -0.000000, -0.000000 )     1.62273426
  WF centre and spread    2  (  0.000000,  0.000000,  0.000000 )     2.95868126
  WF centre and spread    3  ( -0.000000,  0.000000, -0.000000 )     2.95868121
  WF centre and spread    4  (  0.000000,  0.000000,  0.000000 )     2.95868115
  Sum of centres and spreads ( -0.000000,  0.000000,  0.000000 )    10.49877788
 
    284    -0.142E-13     0.0000002040       10.4987778780       1.58  <-- CONV
        O_D=      0.0000000 O_OD=      3.2984005 O_TOT=     10.4987779 <-- SPRD
 Delta: O_D= -0.4933138E-20 O_OD= -0.1421085E-13 O_TOT= -0.1421085E-13 <-- DLTA
 ------------------------------------------------------------------------------
 Cycle:    285
  WF centre and spread    1  (  0.000000, -0.000000, -0.000000 )     1.62273426
  WF centre and spread    2  (  0.000000,  0.000000,  0.000000 )     2.95868126
  WF centre and spread    3  ( -0.000000,  0.000000, -0.000000 )     2.95868121
  WF centre and spread    4  (  0.000000,  0.000000,  0.000000 )     2.95868115
  Sum of centres and spreads ( -0.000000,  0.000000,  0.000000 )    10.49877788
 
    285    -0.373E-13     0.0000002024       10.4987778780       1.59  <-- CONV
        O_D=      0.0000000 O_OD=      3.2984005 O_TOT=     10.4987779 <-- SPRD
 Delta: O_D= -0.1736434E-20 O_OD= -0.3641532E-13 O_TOT= -0.3730349E-13 <-- DLTA
 ------------------------------------------------------------------------------
 Cycle:    286
  WF centre and spread    1  (  0.000000, -0.000000, -0.000000 )     1.62273426
  WF centre and spread    2  (  0.000000,  0.000000,  0.000000 )     2.95868126
  WF centre and spread    3  ( -0.000000,  0.000000, -0.000000 )     2.95868121
  WF centre and spread    4  (  0.000000,  0.000000,  0.000000 )     2.95868115
  Sum of centres and spreads ( -0.000000,  0.000000,  0.000000 )    10.49877788
 
    286    -0.888E-14     0.0000002018       10.4987778780       1.59  <-- CONV
        O_D=      0.0000000 O_OD=      3.2984005 O_TOT=     10.4987779 <-- SPRD
 Delta: O_D= -0.7293899E-20 O_OD= -0.8881784E-14 O_TOT= -0.8881784E-14 <-- DLTA
 ------------------------------------------------------------------------------
 Cycle:    287
  WF centre and spread    1  (  0.000000, -0.000000, -0.000000 )     1.62273426
  WF centre and spread    2  (  0.000000,  0.000000,  0.000000 )     2.95868126
  WF centre and spread    3  ( -0.000000,  0.000000, -0.000000 )     2.95868121
  WF centre and spread    4  (  0.000000,  0.000000,  0.000000 )     2.95868115
  Sum of centres and spreads ( -0.000000,  0.000000,  0.000000 )    10.49877788
 
    287     0.178E-13     0.0000001995       10.4987778780       1.60  <-- CONV
        O_D=      0.0000000 O_OD=      3.2984005 O_TOT=     10.4987779 <-- SPRD
 Delta: O_D= -0.1257065E-22 O_OD=  0.1820766E-13 O_TOT=  0.1776357E-13 <-- DLTA
 ------------------------------------------------------------------------------
 Cycle:    288
  WF centre and spread    1  (  0.000000, -0.000000, -0.000000 )     1.62273426
  WF centre and spread    2  (  0.000000,  0.000000,  0.000000 )     2.95868126
  WF centre and spread    3  ( -0.000000,  0.000000, -0.000000 )     2.95868121
  WF centre and spread    4  (  0.000000,  0.000000,  0.000000 )     2.95868115
  Sum of centres and spreads ( -0.000000,  0.000000,  0.000000 )    10.49877788
 
    288     0.355E-14     0.0000001994       10.4987778780       1.60  <-- CONV
        O_D=      0.0000000 O_OD=      3.2984005 O_TOT=     10.4987779 <-- SPRD
 Delta: O_D= -0.2564313E-21 O_OD=  0.3552714E-14 O_TOT=  0.3552714E-14 <-- DLTA
 ------------------------------------------------------------------------------
 Cycle:    289
  WF centre and spread    1  (  0.000000, -0.000000, -0.000000 )     1.62273426
  WF centre and spread    2  (  0.000000,  0.000000,  0.000000 )     2.95868126
  WF centre and spread    3  ( -0.000000,  0.000000, -0.000000 )     2.95868121
  WF centre and spread    4  (  0.000000,  0.000000,  0.000000 )     2.95868115
  Sum of centres and spreads ( -0.000000,  0.000000,  0.000000 )    10.49877788
 
    289     0.302E-13     0.0000001994       10.4987778780       1.61  <-- CONV
        O_D=      0.0000000 O_OD=      3.2984005 O_TOT=     10.4987779 <-- SPRD
 Delta: O_D= -0.2516187E-21 O_OD=  0.2975398E-13 O_TOT=  0.3019807E-13 <-- DLTA
 ------------------------------------------------------------------------------
 Cycle:    290
  WF centre and spread    1  (  0.000000, -0.000000, -0.000000 )     1.62273426
  WF centre and spread    2  (  0.000000,  0.000000,  0.000000 )     2.95868126
  WF centre and spread    3  ( -0.000000,  0.000000, -0.000000 )     2.95868121
  WF centre and spread    4  (  0.000000,  0.000000,  0.000000 )     2.95868115
  Sum of centres and spreads ( -0.000000,  0.000000,  0.000000 )    10.49877788
 
    290    -0.231E-13     0.0000001993       10.4987778780       1.61  <-- CONV
        O_D=      0.0000000 O_OD=      3.2984005 O_TOT=     10.4987779 <-- SPRD
 Delta: O_D= -0.4952563E-20 O_OD= -0.2309264E-13 O_TOT= -0.2309264E-13 <-- DLTA
 ------------------------------------------------------------------------------
 Cycle:    291
  WF centre and spread    1  (  0.000000, -0.000000, -0.000000 )     1.62273426
  WF centre and spread    2  (  0.000000,  0.000000,  0.000000 )     2.95868126
  WF centre and spread    3  ( -0.000000,  0.000000, -0.000000 )     2.95868121
  WF centre and spread    4  (  0.000000,  0.000000,  0.000000 )     2.95868115
  Sum of centres and spreads ( -0.000000,  0.000000,  0.000000 )    10.49877788
 
    291    -0.568E-13     0.0000001977       10.4987778780       1.62  <-- CONV
        O_D=      0.0000000 O_OD=      3.2984005 O_TOT=     10.4987779 <-- SPRD
 Delta: O_D= -0.6113878E-20 O_OD= -0.5684342E-13 O_TOT= -0.5684342E-13 <-- DLTA
 ------------------------------------------------------------------------------
 Cycle:    292
  WF centre and spread    1  (  0.000000, -0.000000, -0.000000 )     1.62273426
  WF centre and spread    2  (  0.000000,  0.000000,  0.000000 )     2.95868126
  WF centre and spread    3  ( -0.000000,  0.000000, -0.000000 )     2.95868121
  WF centre and spread    4  (  0.000000,  0.000000,  0.000000 )     2.95868115
  Sum of centres and spreads ( -0.000000,  0.000000,  0.000000 )    10.49877788
 
    292     0.497E-13     0.0000001958       10.4987778780       1.62  <-- CONV
        O_D=      0.0000000 O_OD=      3.2984005 O_TOT=     10.4987779 <-- SPRD
 Delta: O_D= -0.4294410E-21 O_OD=  0.4973799E-13 O_TOT=  0.4973799E-13 <-- DLTA
 ------------------------------------------------------------------------------
 Cycle:    293
  WF centre and spread    1  (  0.000000, -0.000000, -0.000000 )     1.62273426
  WF centre and spread    2  (  0.000000,  0.000000,  0.000000 )     2.95868126
  WF centre and spread    3  ( -0.000000,  0.000000, -0.000000 )     2.95868121
  WF centre and spread    4  (  0.000000,  0.000000,  0.000000 )     2.95868115
  Sum of centres and spreads ( -0.000000,  0.000000,  0.000000 )    10.49877788
 
    293    -0.142E-13     0.0000001957       10.4987778780       1.63  <-- CONV
        O_D=      0.0000000 O_OD=      3.2984005 O_TOT=     10.4987779 <-- SPRD
 Delta: O_D= -0.5649759E-22 O_OD= -0.1421085E-13 O_TOT= -0.1421085E-13 <-- DLTA
 ------------------------------------------------------------------------------
 Cycle:    294
  WF centre and spread    1  (  0.000000, -0.000000, -0.000000 )     1.62273426
  WF centre and spread    2  (  0.000000,  0.000000,  0.000000 )     2.95868126
  WF centre and spread    3  ( -0.000000,  0.000000, -0.000000 )     2.95868121
  WF centre and spread    4  (  0.000000,  0.000000,  0.000000 )     2.95868115
  Sum of centres and spreads ( -0.000000,  0.000000,  0.000000 )    10.49877788
 
    294     0.711E-14     0.0000001956       10.4987778780       1.64  <-- CONV
        O_D=      0.0000000 O_OD=      3.2984005 O_TOT=     10.4987779 <-- SPRD
 Delta: O_D= -0.7259441E-22 O_OD=  0.5773160E-14 O_TOT=  0.7105427E-14 <-- DLTA
 ------------------------------------------------------------------------------
 Cycle:    295
  WF centre and spread    1  (  0.000000, -0.000000, -0.000000 )     1.62273426
  WF centre and spread    2  (  0.000000,  0.000000,  0.000000 )     2.95868126
  WF centre and spread    3  ( -0.000000,  0.000000, -0.000000 )     2.95868121
  WF centre and spread    4  (  0.000000,  0.000000,  0.000000 )     2.95868115
  Sum of centres and spreads ( -0.000000,  0.000000,  0.000000 )    10.49877788
 
    295     0.711E-14     0.0000001956       10.4987778780       1.64  <-- CONV
        O_D=      0.0000000 O_OD=      3.2984005 O_TOT=     10.4987779 <-- SPRD
 Delta: O_D= -0.2944884E-21 O_OD=  0.8437695E-14 O_TOT=  0.7105427E-14 <-- DLTA
 ------------------------------------------------------------------------------
 Cycle:    296
  WF centre and spread    1  (  0.000000, -0.000000, -0.000000 )     1.62273426
  WF centre and spread    2  (  0.000000,  0.000000,  0.000000 )     2.95868126
  WF centre and spread    3  ( -0.000000,  0.000000, -0.000000 )     2.95868121
  WF centre and spread    4  (  0.000000,  0.000000,  0.000000 )     2.95868115
  Sum of centres and spreads ( -0.000000,  0.000000,  0.000000 )    10.49877788
 
    296     0.711E-14     0.0000001955       10.4987778780       1.65  <-- CONV
        O_D=      0.0000000 O_OD=      3.2984005 O_TOT=     10.4987779 <-- SPRD
 Delta: O_D= -0.1651554E-20 O_OD=  0.5773160E-14 O_TOT=  0.7105427E-14 <-- DLTA
 ------------------------------------------------------------------------------
 Cycle:    297
  WF centre and spread    1  (  0.000000, -0.000000, -0.000000 )     1.62273426
  WF centre and spread    2  (  0.000000,  0.000000,  0.000000 )     2.95868126
  WF centre and spread    3  ( -0.000000,  0.000000, -0.000000 )     2.95868121
  WF centre and spread    4  (  0.000000,  0.000000,  0.000000 )     2.95868115
  Sum of centres and spreads ( -0.000000,  0.000000,  0.000000 )    10.49877788
 
    297    -0.284E-13     0.0000001950       10.4987778780       1.65  <-- CONV
        O_D=      0.0000000 O_OD=      3.2984005 O_TOT=     10.4987779 <-- SPRD
 Delta: O_D= -0.6181960E-20 O_OD= -0.2753353E-13 O_TOT= -0.2842171E-13 <-- DLTA
 ------------------------------------------------------------------------------
 Cycle:    298
  WF centre and spread    1  (  0.000000, -0.000000, -0.000000 )     1.62273426
  WF centre and spread    2  (  0.000000,  0.000000,  0.000000 )     2.95868126
  WF centre and spread    3  ( -0.000000,  0.000000, -0.000000 )     2.95868121
  WF centre and spread    4  (  0.000000,  0.000000,  0.000000 )     2.95868115
  Sum of centres and spreads ( -0.000000,  0.000000,  0.000000 )    10.49877788
 
    298     0.213E-13     0.0000001931       10.4987778780       1.66  <-- CONV
        O_D=      0.0000000 O_OD=      3.2984005 O_TOT=     10.4987779 <-- SPRD
 Delta: O_D= -0.3301025E-21 O_OD=  0.2220446E-13 O_TOT=  0.2131628E-13 <-- DLTA
 ------------------------------------------------------------------------------
 Cycle:    299
  WF centre and spread    1  (  0.000000, -0.000000, -0.000000 )     1.62273426
  WF centre and spread    2  (  0.000000,  0.000000,  0.000000 )     2.95868126
  WF centre and spread    3  ( -0.000000,  0.000000, -0.000000 )     2.95868121
  WF centre and spread    4  (  0.000000,  0.000000,  0.000000 )     2.95868115
  Sum of centres and spreads ( -0.000000,  0.000000,  0.000000 )    10.49877788
 
    299    -0.142E-13     0.0000001930       10.4987778780       1.66  <-- CONV
        O_D=      0.0000000 O_OD=      3.2984005 O_TOT=     10.4987779 <-- SPRD
 Delta: O_D= -0.1247017E-20 O_OD= -0.1509903E-13 O_TOT= -0.1421085E-13 <-- DLTA
 ------------------------------------------------------------------------------
 Cycle:    300
  WF centre and spread    1  (  0.000000, -0.000000, -0.000000 )     1.62273426
  WF centre and spread    2  (  0.000000,  0.000000,  0.000000 )     2.95868126
  WF centre and spread    3  ( -0.000000,  0.000000, -0.000000 )     2.95868121
  WF centre and spread    4  (  0.000000,  0.000000,  0.000000 )     2.95868115
  Sum of centres and spreads ( -0.000000,  0.000000,  0.000000 )    10.49877788
 
    300    -0.178E-13     0.0000001926       10.4987778780       1.67  <-- CONV
        O_D=      0.0000000 O_OD=      3.2984005 O_TOT=     10.4987779 <-- SPRD
 Delta: O_D= -0.2485702E-20 O_OD= -0.1820766E-13 O_TOT= -0.1776357E-13 <-- DLTA
 ------------------------------------------------------------------------------

 Writing checkpoint file pb.chk... done

 Final State
  WF centre and spread    1  (  0.000000, -0.000000, -0.000000 )     1.62273426
  WF centre and spread    2  (  0.000000,  0.000000,  0.000000 )     2.95868126
  WF centre and spread    3  ( -0.000000,  0.000000, -0.000000 )     2.95868121
  WF centre and spread    4  (  0.000000,  0.000000,  0.000000 )     2.95868115
  Sum of centres and spreads ( -0.000000,  0.000000,  0.000000 )    10.49877788
 
         Spreads (Ang^2)       Omega I      =     7.200377412
        ================       Omega D      =     0.000000000
                               Omega OD     =     3.298400466
    Final Spread (Ang^2)       Omega Total  =    10.498777878
 ------------------------------------------------------------------------------
 Time for wannierise            1.670 (sec)

 Writing checkpoint file pb.chk... done

 *---------------------------------------------------------------------------*
 |                               PLOTTING                                    |
 *---------------------------------------------------------------------------*
 
 
 Calculating interpolated band-structure
 
 Time to calculate interpolated band structure       0.202 (sec)
 
 Time for plotting              0.244 (sec)
 Total Execution Time           2.115 (sec)

 *===========================================================================*
 |                             TIMING INFORMATION                            |
 *===========================================================================*
 |    Tag                                                Ncalls      Time (s)|
 |---------------------------------------------------------------------------|
 |kmesh: get                                        :         1         0.124|
 |overlap: allocate                                 :         1         0.001|
 |overlap: read                                     :         1         0.032|
 |wann: main                                        :         1         1.670|
 |plot: main                                        :         1         0.244|
 *---------------------------------------------------------------------------*
 
 All done: wannier90 exiting
