
     Program PHONON v.4.3.2     starts on 11Aug2021 at 19:31:25 

     This program is part of the open-source Quantum ESPRESSO suite
     for quantum simulation of materials; please cite
         "P. Giannozzi et al., J. Phys.:Condens. Matter 21 395502 (2009);
          URL http://www.quantum-espresso.org", 
     in publications or presentations arising from this work. More details at
     http://www.quantum-espresso.org/wiki/index.php/Citing_Quantum-ESPRESSO

     Parallel version (MPI), running on     1 processors

     Ultrasoft (Vanderbilt) Pseudopotentials

   Info: using nr1, nr2, nr3 values from input

   Info: using nr1s, nr2s, nr3s values from input
               file O.pbe-mt_fhi.UPF: wavefunction(s)  4f renormalized
 
     G-vector sticks info
     --------------------
     sticks:   dense  smooth     PW     G-vecs:    dense   smooth      PW
     Sum       19089   19089   4765              1985227  1985227  248049
 
haritz( 0): open_buffer: unit=          10
haritz( 0): open_buffer: call diropn
haritz( 0): diropn: exst= T
haritz( 0): diropn: recl=     7441470
haritz( 0): diropn: unf_recl=               59531760

     Calculation of q =    0.0000000   0.0000000   0.0000000

                                                                                

     bravais-lattice index     =            1
     lattice parameter (alat)  =      20.0000  a.u.
     unit-cell volume          =    8000.0000 (a.u.)^3
     number of atoms/cell      =            2
     number of atomic types    =            2
     kinetic-energy cut-off    =     150.0000  Ry
     charge density cut-off    =     600.0000  Ry
     convergence threshold     =      1.0E-12
     beta                      =       0.7000
     number of iterations used =            4
     Exchange-correlation      = PBE ( 1 4 3 4 0)
     EXX-fraction              =        0.00


     celldm(1)=   20.00000  celldm(2)=    0.00000  celldm(3)=    0.00000
     celldm(4)=    0.00000  celldm(5)=    0.00000  celldm(6)=    0.00000

     crystal axes: (cart. coord. in units of alat)
               a(1) = (  1.0000  0.0000  0.0000 )  
               a(2) = (  0.0000  1.0000  0.0000 )  
               a(3) = (  0.0000  0.0000  1.0000 )  

     reciprocal axes: (cart. coord. in units 2 pi/alat)
               b(1) = (  1.0000  0.0000  0.0000 )  
               b(2) = (  0.0000  1.0000  0.0000 )  
               b(3) = (  0.0000  0.0000  1.0000 )  


     Atoms inside the unit cell: 

   Cartesian axes

     site n.  atom      mass           positions (alat units)
        1        Fe  55.8450   tau( 1) = (    0.50000    0.50000    0.47749  )
        2        O   15.9990   tau( 2) = (    0.50000    0.50000    0.62251  )

     Computing dynamical matrix for 
                    q = (   0.0000000   0.0000000   0.0000000 )
 
      9 Sym.Ops. (with q -> -q+G )

                                    s                        frac. trans.

      isym =  1     identity                                     

 cryst.   s( 1) = (     1          0          0      )
                  (     0          1          0      )
                  (     0          0          1      )

 cart.    s( 1) = (  1.0000000  0.0000000  0.0000000 )
                  (  0.0000000  1.0000000  0.0000000 )
                  (  0.0000000  0.0000000  1.0000000 )


      isym =  2     180 deg rotation - cart. axis [0,0,1]        

 cryst.   s( 2) = (    -1          0          0      )
                  (     0         -1          0      )
                  (     0          0          1      )

 cart.    s( 2) = ( -1.0000000  0.0000000  0.0000000 )
                  (  0.0000000 -1.0000000  0.0000000 )
                  (  0.0000000  0.0000000  1.0000000 )


      isym =  3      90 deg rotation - cart. axis [0,0,-1]       

 cryst.   s( 3) = (     0         -1          0      )
                  (     1          0          0      )
                  (     0          0          1      )

 cart.    s( 3) = (  0.0000000  1.0000000  0.0000000 )
                  ( -1.0000000  0.0000000  0.0000000 )
                  (  0.0000000  0.0000000  1.0000000 )


      isym =  4      90 deg rotation - cart. axis [0,0,1]        

 cryst.   s( 4) = (     0          1          0      )
                  (    -1          0          0      )
                  (     0          0          1      )

 cart.    s( 4) = (  0.0000000 -1.0000000  0.0000000 )
                  (  1.0000000  0.0000000  0.0000000 )
                  (  0.0000000  0.0000000  1.0000000 )


      isym =  5     inv. 180 deg rotation - cart. axis [0,1,0]   

 cryst.   s( 5) = (     1          0          0      )
                  (     0         -1          0      )
                  (     0          0          1      )

 cart.    s( 5) = (  1.0000000  0.0000000  0.0000000 )
                  (  0.0000000 -1.0000000  0.0000000 )
                  (  0.0000000  0.0000000  1.0000000 )


      isym =  6     inv. 180 deg rotation - cart. axis [1,0,0]   

 cryst.   s( 6) = (    -1          0          0      )
                  (     0          1          0      )
                  (     0          0          1      )

 cart.    s( 6) = ( -1.0000000  0.0000000  0.0000000 )
                  (  0.0000000  1.0000000  0.0000000 )
                  (  0.0000000  0.0000000  1.0000000 )


      isym =  7     inv. 180 deg rotation - cart. axis [1,1,0]   

 cryst.   s( 7) = (     0         -1          0      )
                  (    -1          0          0      )
                  (     0          0          1      )

 cart.    s( 7) = (  0.0000000 -1.0000000  0.0000000 )
                  ( -1.0000000  0.0000000  0.0000000 )
                  (  0.0000000  0.0000000  1.0000000 )


      isym =  8     inv. 180 deg rotation - cart. axis [1,-1,0]  

 cryst.   s( 8) = (     0          1          0      )
                  (     1          0          0      )
                  (     0          0          1      )

 cart.    s( 8) = (  0.0000000  1.0000000  0.0000000 )
                  (  1.0000000  0.0000000  0.0000000 )
                  (  0.0000000  0.0000000  1.0000000 )


     This transformation sends q -> -q+G

      isym =  9     identity                                     

 cryst.   s( 9) = (     1          0          0      )
                  (     0          1          0      )
                  (     0          0          1      )

 cart.    s( 9) = (  1.0000000  0.0000000  0.0000000 )
                  (  0.0000000  1.0000000  0.0000000 )
                  (  0.0000000  0.0000000  1.0000000 )


     G cutoff = 6079.2710  (1985227 G-vectors)     FFT grid: (160,160,160)

     number of k points=     1  Methfessel-Paxton smearing, width (Ry)=  0.0200
                       cart. coord. in units 2pi/alat
        k(    1) = (   0.0000000   0.0000000   0.0000000), wk =   2.0000000

                       cryst. coord.
        k(    1) = (   0.0000000   0.0000000   0.0000000), wk =   2.0000000

     PseudoPot. # 1 for Fe read from file:
     ./fe-o.save/Fe.pbe-sp-mt_gipaw.UPF
     MD5 check sum: b18f68d47abfbe37cb7aa7e8ec20d1e5
     Pseudo is Norm-conserving, Zval = 16.0
     Generated using "atomic" code by A. Dal Corso (espresso distribution)
     Using radial grid of 1191 points,  2 beta functions with: 
                l(1) =   0
                l(2) =   1

     PseudoPot. # 2 for  O read from file:
     ./fe-o.save/O.pbe-mt_fhi.UPF
     MD5 check sum: 3b92155a999f3329089a1d583bd54c69
     Pseudo is Norm-conserving, Zval =  6.0
     Generated using FHI98PP, converted with fhi2upf.x v.5.0.2
     Using radial grid of  473 points,  3 beta functions with: 
                l(1) =   0
                l(2) =   1
                l(3) =   3

     k=gamma and q=gamma tricks are used


     Atomic displacements:
     There are   6 irreducible representations

     Representation     1      1 modes - To be done
     Phonon polarizations are as follows:

                     mode #   1
                     (   1.00000   0.00000   ) 
                     (   0.00000   0.00000   ) 
                     (   0.00000   0.00000   ) 
                     (   0.00000   0.00000   ) 
                     (   0.00000   0.00000   ) 
                     (   0.00000   0.00000   ) 

     Representation     2      1 modes - To be done
     Phonon polarizations are as follows:

                     mode #   2
                     (   0.00000   0.00000   ) 
                     (   1.00000   0.00000   ) 
                     (   0.00000   0.00000   ) 
                     (   0.00000   0.00000   ) 
                     (   0.00000   0.00000   ) 
                     (   0.00000   0.00000   ) 

     Representation     3      1 modes - To be done
     Phonon polarizations are as follows:

                     mode #   3
                     (   0.00000   0.00000   ) 
                     (   0.00000   0.00000   ) 
                     (   1.00000   0.00000   ) 
                     (   0.00000   0.00000   ) 
                     (   0.00000   0.00000   ) 
                     (   0.00000   0.00000   ) 

     Representation     4      1 modes - To be done
     Phonon polarizations are as follows:

                     mode #   4
                     (   0.00000   0.00000   ) 
                     (   0.00000   0.00000   ) 
                     (   0.00000   0.00000   ) 
                     (   1.00000   0.00000   ) 
                     (   0.00000   0.00000   ) 
                     (   0.00000   0.00000   ) 

     Representation     5      1 modes - To be done
     Phonon polarizations are as follows:

                     mode #   5
                     (   0.00000   0.00000   ) 
                     (   0.00000   0.00000   ) 
                     (   0.00000   0.00000   ) 
                     (   0.00000   0.00000   ) 
                     (   1.00000   0.00000   ) 
                     (   0.00000   0.00000   ) 

     Representation     6      1 modes - To be done
     Phonon polarizations are as follows:

                     mode #   6
                     (   0.00000   0.00000   ) 
                     (   0.00000   0.00000   ) 
                     (   0.00000   0.00000   ) 
                     (   0.00000   0.00000   ) 
                     (   0.00000   0.00000   ) 
                     (   1.00000   0.00000   ) 


haritz( 0): diropn: exst= T
haritz( 0): diropn: recl=     7441470
haritz( 0): diropn: unf_recl=               59531760
haritz( 0): diropn: exst= F
haritz( 0): diropn: recl=     7441470
haritz( 0): diropn: unf_recl=               59531760
haritz( 0): diropn: exst= F
haritz( 0): diropn: recl=     7441470
haritz( 0): diropn: unf_recl=               59531760
haritz( 0): diropn: exst= T
haritz( 0): diropn: recl=     8192000
haritz( 0): diropn: unf_recl=               65536000
     PHONON       :    14.42s CPU        17.90s WALL

haritz    1    1    1      -0.0000002126  -0.0000000012       0.0000002126
haritz    2    1    1      -0.0000000005  -0.0000000002       0.0000000005
haritz    3    1    1       0.8859006078  -1.9484252789       2.1403693500
haritz    4    1    1      -0.5077244283  -0.6870618722       0.8543056311
haritz    5    1    1      -0.0000000086  -0.0000000031       0.0000000091
haritz    6    1    1      -0.0000000052  -0.0000000038       0.0000000065
haritz    7    1    1       0.0041687301  -0.0477622563       0.0479438363
haritz    8    1    1       0.0311855993  -0.0111759299       0.0331276774
haritz    9    1    1      -0.0000000157   0.0000000088       0.0000000179
haritz   10    1    1      -0.0000000000   0.0000000000       0.0000000000
haritz   11    1    1       0.0000000000  -0.0000000000       0.0000000000
haritz   12    1    1       0.0073374446  -0.1310204600       0.1312257560
haritz   13    1    1      -0.0267973880   0.0678226194       0.0729246715
haritz   14    1    1       0.0000000004  -0.0000000021       0.0000000022
haritz   15    1    1       0.0547579266  -0.1312749314       0.1422376115
haritz    1    2    1      -0.0000000004   0.0000000003       0.0000000005
haritz    2    2    1      -0.0000002071  -0.0000000011       0.0000002071
haritz    3    2    1       0.0006197958   0.0427252160       0.0427297113
haritz    4    2    1       0.0150627766   0.0081871546       0.0171440001
haritz    5    2    1      -0.0000000223   0.0000000021       0.0000000224
haritz    6    2    1      -0.0000000094  -0.0000000018       0.0000000096
haritz    7    2    1      -0.6707742900  -1.8157915537       1.9357265082
haritz    8    2    1       0.9450648316  -0.9424235501       1.3346571409
haritz    9    2    1      -0.0000000028   0.0000000040       0.0000000048
haritz   10    2    1       0.0000000000  -0.0000000000       0.0000000000
haritz   11    2    1      -0.0000000000   0.0000000000       0.0000000000
haritz   12    2    1       1.2663063425   3.1292189103       3.3757284757
haritz   13    2    1      -0.1214658069  -1.8751777246       1.8791076183
haritz   14    2    1       0.0000000046   0.0000000168       0.0000000174
haritz   15    2    1      -0.0248699651  -0.5473281710       0.5478929110
haritz    1    3    1       0.8859009384   1.9484240448       2.1403683634
haritz    2    3    1       0.0006273908  -0.0427342008       0.0427388060
haritz    3    3    1      -0.0000002039  -0.0000000012       0.0000002039
haritz    4    3    1      -0.0000000000   0.0000000000       0.0000000000
haritz    5    3    1       0.0009370526   0.0107571290       0.0107978651
haritz    6    3    1      -0.1389884204   0.7081316789       0.7216427479
haritz    7    3    1       0.0000000047  -0.0000000002       0.0000000047
haritz    8    3    1       0.0000000043   0.0000000018       0.0000000046
haritz    9    3    1      -2.2733096501  -1.6572639580       2.8132651123
haritz   10    3    1      -1.1471431215   1.1909894417       1.6536000699
haritz   11    3    1      -4.1285224726  -0.3373923555       4.1422857709
haritz   12    3    1       0.0000000047  -0.0000000008       0.0000000048
haritz   13    3    1      -0.0000000040   0.0000000020       0.0000000044
haritz   14    3    1      -0.5371477060   0.1406714393       0.5552622010
haritz   15    3    1       0.0000000068  -0.0000000020       0.0000000071
haritz    1    4    1      -0.5077275336   0.6870626511       0.8543081031
haritz    2    4    1       0.0150338406  -0.0081928671       0.0171213152
haritz    3    4    1      -0.0000000000  -0.0000000000       0.0000000000
haritz    4    4    1      -0.0000002039  -0.0000000012       0.0000002039
haritz    5    4    1      -0.0035710047   0.0024001675       0.0043026595
haritz    6    4    1      -0.2739666740   0.0889140188       0.2880337501
haritz    7    4    1       0.0000000046  -0.0000000002       0.0000000046
haritz    8    4    1      -0.0000000043  -0.0000000019       0.0000000047
haritz    9    4    1       0.1369513866  -1.1145168221       1.1228995632
haritz   10    4    1       4.0046962978   1.0609828383       4.1428585567
haritz   11    4    1      -0.6834091524  -1.5055179146       1.6533699709
haritz   12    4    1       0.0000000044   0.0000000004       0.0000000044
haritz   13    4    1       0.0000000047  -0.0000000011       0.0000000048
haritz   14    4    1      -0.1533010547  -0.1600628414       0.2216333155
haritz   15    4    1      -0.0000000047   0.0000000009       0.0000000047
haritz    1    5    1      -0.0000000086   0.0000000030       0.0000000091
haritz    2    5    1      -0.0000000223  -0.0000000024       0.0000000224
haritz    3    5    1       0.0009362745  -0.0107582628       0.0107989272
haritz    4    5    1      -0.0035675727  -0.0024004930       0.0042999932
haritz    5    5    1       0.0000001162   0.0000000007       0.0000001162
haritz    6    5    1      -0.0000001076  -0.0000000314       0.0000001121
haritz    7    5    1      -0.0186656955  -0.0720400358       0.0744189153
haritz    8    5    1       0.0397751932  -0.0324004557       0.0513016132
haritz    9    5    1      -0.0000000112   0.0000000129       0.0000000171
haritz   10    5    1      -0.0000000000   0.0000000000       0.0000000000
haritz   11    5    1       0.0000000000  -0.0000000000       0.0000000000
haritz   12    5    1       0.0765295346   0.2620275643       0.2729747500
haritz   13    5    1       0.0054203856  -0.1518551157       0.1519518238
haritz   14    5    1       0.0000000015   0.0000000085       0.0000000086
haritz   15    5    1       0.0031156119  -0.0566364175       0.0567220488
haritz    1    6    1      -0.0000000053   0.0000000037       0.0000000065
haritz    2    6    1      -0.0000000095   0.0000000016       0.0000000096
haritz    3    6    1      -0.1389892140  -0.7081323326       0.7216435422
haritz    4    6    1      -0.2739642756  -0.0889149625       0.2880317601
haritz    5    6    1      -0.0000001079   0.0000000306       0.0000001121
haritz    6    6    1       0.0000000774   0.0000000004       0.0000000774
haritz    7    6    1       0.0010165379   0.0017300375       0.0020065839
haritz    8    6    1      -0.0007959245   0.0011596863       0.0014065448
haritz    9    6    1       0.0000000386  -0.0000000817       0.0000000904
haritz   10    6    1       0.0000000000   0.0000000000       0.0000000000
haritz   11    6    1      -0.0000000000  -0.0000000000       0.0000000000
haritz   12    6    1       0.0868731339   0.1371900878       0.1623824547
haritz   13    6    1      -0.0218881091  -0.0876879470       0.0903784564
haritz   14    6    1      -0.0000000432  -0.0000000907       0.0000001005
haritz   15    6    1      -0.0110121467  -0.0480270698       0.0492733885
haritz    1    7    1       0.0041584491   0.0477599688       0.0479406645
haritz    2    7    1      -0.6707746347   1.8157912863       1.9357263768
haritz    3    7    1       0.0000000047   0.0000000003       0.0000000047
haritz    4    7    1       0.0000000046   0.0000000003       0.0000000046
haritz    5    7    1      -0.0186644518   0.0720408142       0.0744193568
haritz    6    7    1       0.0010188184  -0.0017274956       0.0020055503
haritz    7    7    1       0.0000000463   0.0000000003       0.0000000463
haritz    8    7    1       0.0000000000  -0.0000000000       0.0000000000
haritz    9    7    1       0.0433019691   0.0631768795       0.0765922884
haritz   10    7    1      -0.0305150434  -0.0269571649       0.0407167854
haritz   11    7    1       0.0537550524   0.0241020715       0.0589110814
haritz   12    7    1       0.0000001387   0.0000000027       0.0000001387
haritz   13    7    1       0.0000000087   0.0000000142       0.0000000167
haritz   14    7    1       0.0538461801   0.0045258749       0.0540360496
haritz   15    7    1      -0.0000000085   0.0000000031       0.0000000091
haritz    1    8    1       0.0311948287   0.0111637716       0.0331322673
haritz    2    8    1       0.9450653928   0.9424232572       1.3346573314
haritz    3    8    1       0.0000000043  -0.0000000017       0.0000000046
haritz    4    8    1      -0.0000000044   0.0000000018       0.0000000047
haritz    5    8    1       0.0397734156   0.0324016235       0.0513009727
haritz    6    8    1      -0.0008006528  -0.0011582186       0.0014080182
haritz    7    8    1       0.0000000000   0.0000000000       0.0000000000
haritz    8    8    1       0.0000000463   0.0000000003       0.0000000463
haritz    9    8    1       0.0520488682  -0.0089724205       0.0528165600
haritz   10    8    1       0.0539534251  -0.0238782487       0.0590012105
haritz   11    8    1       0.0305937276  -0.0267788978       0.0406581546
haritz   12    8    1      -0.0000000027  -0.0000000165       0.0000000167
haritz   13    8    1      -0.0000001034   0.0000000925       0.0000001387
haritz   14    8    1       0.0183242712  -0.0324512754       0.0372674682
haritz   15    8    1      -0.0000000350   0.0000000260       0.0000000436
haritz    1    9    1      -0.0000000156  -0.0000000089       0.0000000179
haritz    2    9    1      -0.0000000028  -0.0000000040       0.0000000048
haritz    3    9    1      -2.2733095234   1.6572634689       2.8132647217
haritz    4    9    1       0.1369523055   1.1145176950       1.1229005417
haritz    5    9    1      -0.0000000112  -0.0000000129       0.0000000171
haritz    6    9    1       0.0000000378   0.0000000821       0.0000000904
haritz    7    9    1       0.0433028902  -0.0631765994       0.0765925780
haritz    8    9    1       0.0520486801   0.0089710383       0.0528161399
haritz    9    9    1      -0.0000000926  -0.0000000005       0.0000000926
haritz   10    9    1       0.0000000000  -0.0000000000       0.0000000000
haritz   11    9    1      -0.0000000000   0.0000000000       0.0000000000
haritz   12    9    1       0.0022326620  -0.0034858155       0.0041395277
haritz   13    9    1      -0.0017796444   0.0014363375       0.0022869629
haritz   14    9    1      -0.0000000061   0.0000000074       0.0000000096
haritz   15    9    1      -0.0565538979   0.0440284084       0.0716717805
haritz    1   10    1      -0.0000000000  -0.0000000000       0.0000000000
haritz    2   10    1       0.0000000000   0.0000000000       0.0000000000
haritz    3   10    1      -1.1471430023  -1.1909879170       1.6535988892
haritz    4   10    1       4.0046968527  -1.0609825843       4.1428590280
haritz    5   10    1      -0.0000000000  -0.0000000000       0.0000000000
haritz    6   10    1       0.0000000000  -0.0000000000       0.0000000000
haritz    7   10    1      -0.0305118668   0.0269643143       0.0407191388
haritz    8   10    1       0.0539498597   0.0238822913       0.0589995864
haritz    9   10    1       0.0000000000   0.0000000000       0.0000000000
haritz   10   10    1      -0.0000001722  -0.0000000010       0.0000001722
haritz   11   10    1       0.0000000000   0.0000000000       0.0000000000
haritz   12   10    1      -0.0019318921   0.0013043356       0.0023309866
haritz   13   10    1      -0.0041452030   0.0011649436       0.0043057870
haritz   14   10    1       0.0000000000  -0.0000000000       0.0000000000
haritz   15   10    1      -0.0376566002   0.0041027990       0.0378794469
haritz    1   11    1       0.0000000000   0.0000000000       0.0000000000
haritz    2   11    1      -0.0000000000  -0.0000000000       0.0000000000
haritz    3   11    1      -4.1285220330   0.3373919291       4.1422852981
haritz    4   11    1      -0.6834087543   1.5055193963       1.6533711556
haritz    5   11    1       0.0000000000   0.0000000000       0.0000000000
haritz    6   11    1      -0.0000000000   0.0000000000       0.0000000000
haritz    7   11    1       0.0537586364  -0.0240980467       0.0589127053
haritz    8   11    1       0.0305968697   0.0267717346       0.0406558016
haritz    9   11    1      -0.0000000000  -0.0000000000       0.0000000000
haritz   10   11    1       0.0000000000  -0.0000000000       0.0000000000
haritz   11   11    1      -0.0000001722  -0.0000000010       0.0000001722
haritz   12   11    1       0.0039468030  -0.0019261612       0.0043917366
haritz   13   11    1      -0.0023624805   0.0003001232       0.0023814676
haritz   14   11    1      -0.0000000000   0.0000000000       0.0000000000
haritz   15   11    1      -0.0341889263   0.0038847886       0.0344089271
haritz    1   12    1       0.0073528451   0.1310218337       0.1312279895
haritz    2   12    1       1.2663072610  -3.1292183726       3.3757283218
haritz    3   12    1       0.0000000047   0.0000000008       0.0000000048
haritz    4   12    1       0.0000000044  -0.0000000004       0.0000000044
haritz    5   12    1       0.0765296260  -0.2620275225       0.2729747354
haritz    6   12    1       0.0868719974  -0.1371910636       0.1623826711
haritz    7   12    1       0.0000001387  -0.0000000012       0.0000001387
haritz    8   12    1      -0.0000000029   0.0000000164       0.0000000167
haritz    9   12    1       0.0022346473   0.0034849166       0.0041398421
haritz   10   12    1      -0.0019256606  -0.0013172773       0.0023331070
haritz   11   12    1       0.0039512955   0.0019195581       0.0043928851
haritz   12   12    1      -0.0000000891  -0.0000000005       0.0000000891
haritz   13   12    1      -0.0000000000   0.0000000000       0.0000000000
haritz   14   12    1      -0.0098403052  -0.0011319835       0.0099052003
haritz   15   12    1      -0.0000000007  -0.0000000001       0.0000000007
haritz    1   13    1      -0.0267703705  -0.0678289672       0.0729206522
haritz    2   13    1      -0.1214639369   1.8751781228       1.8791078948
haritz    3   13    1      -0.0000000040  -0.0000000020       0.0000000044
haritz    4   13    1       0.0000000047   0.0000000011       0.0000000048
haritz    5   13    1       0.0054205651   0.1518551354       0.1519518499
haritz    6   13    1      -0.0218905957   0.0876869255       0.0903780675
haritz    7   13    1       0.0000000089  -0.0000000141       0.0000000167
haritz    8   13    1      -0.0000001024  -0.0000000936       0.0000001387
haritz    9   13    1      -0.0017767677  -0.0014389901       0.0022863937
haritz   10   13    1      -0.0041462289  -0.0011570210       0.0043046384
haritz   11   13    1      -0.0023585473  -0.0003139338       0.0023793486
haritz   12   13    1      -0.0000000000  -0.0000000000       0.0000000000
haritz   13   13    1      -0.0000000890  -0.0000000005       0.0000000890
haritz   14   13    1       0.0054359558  -0.0011319470       0.0055525597
haritz   15   13    1       0.0000000029   0.0000000003       0.0000000029
haritz    1   14    1       0.0000000003   0.0000000022       0.0000000022
haritz    2   14    1       0.0000000047  -0.0000000168       0.0000000174
haritz    3   14    1      -0.5371470459  -0.1406717435       0.5552616396
haritz    4   14    1      -0.1533011913   0.1600646581       0.2216347221
haritz    5   14    1       0.0000000014  -0.0000000085       0.0000000086
haritz    6   14    1      -0.0000000442   0.0000000902       0.0000001005
haritz    7   14    1       0.0538467115  -0.0045245805       0.0540364707
haritz    8   14    1       0.0183256546   0.0324497931       0.0372668577
haritz    9   14    1      -0.0000000061  -0.0000000075       0.0000000096
haritz   10   14    1       0.0000000000   0.0000000000       0.0000000000
haritz   11   14    1      -0.0000000000  -0.0000000000       0.0000000000
haritz   12   14    1      -0.0098415168   0.0011274214       0.0099058837
haritz   13   14    1       0.0054364654   0.0011234882       0.0055513405
haritz   14   14    1      -0.0000000561  -0.0000000003       0.0000000561
haritz   15   14    1       0.0434041065   0.0099179221       0.0445228215
haritz    1   15    1       0.0547620377   0.1312732116       0.1422376070
haritz    2   15    1      -0.0248709345   0.5473281279       0.5478929120
haritz    3   15    1       0.0000000068   0.0000000021       0.0000000071
haritz    4   15    1      -0.0000000046  -0.0000000010       0.0000000047
haritz    5   15    1       0.0031154925   0.0566364241       0.0567220489
haritz    6   15    1      -0.0110120448   0.0480270931       0.0492733884
haritz    7   15    1      -0.0000000085  -0.0000000032       0.0000000091
haritz    8   15    1      -0.0000000347  -0.0000000263       0.0000000436
haritz    9   15    1      -0.0565521665  -0.0440306372       0.0716717835
haritz   10   15    1      -0.0376567655  -0.0041012968       0.0378794485
haritz   11   15    1      -0.0341887426  -0.0038864212       0.0344089289
haritz   12   15    1      -0.0000000007   0.0000000001       0.0000000007
haritz   13   15    1       0.0000000029  -0.0000000003       0.0000000029
haritz   14   15    1       0.0434047287  -0.0099152111       0.0445228243
haritz   15   15    1      -0.0000000213  -0.0000000001       0.0000000213
haritz    1    1    2       0.0000002054   0.0000000037       0.0000002055
haritz    2    1    2       0.0000000025   0.0000000012       0.0000000028
haritz    3    1    2       0.8251812023  -0.2211653294       0.8543056359
haritz    4    1    2      -0.5207904446   2.0760438943       2.1403693463
haritz    5    1    2       0.0000000075   0.0000000028       0.0000000080
haritz    6    1    2       0.0000000030   0.0000000022       0.0000000037
haritz    7    1    2       0.0071773831   0.0323408037       0.0331276684
haritz    8    1    2       0.0381800593  -0.0289982009       0.0479438482
haritz    9    1    2       0.0000000171  -0.0000000093       0.0000000194
haritz   10    1    2       0.0000000000  -0.0000000000       0.0000000000
haritz   11    1    2      -0.0000000000   0.0000000000       0.0000000000
haritz   12    1    2       0.0065129947   0.0726332593       0.0729246834
haritz   13    1    2      -0.0300327194   0.1277428464       0.1312257561
haritz   14    1    2       0.0000000000  -0.0000000002       0.0000000002
haritz   15    1    2       0.0595517657  -0.1423686545       0.1543218927
haritz    1    2    2       0.0000000026  -0.0000000011       0.0000000028
haritz    2    2    2       0.0000002045   0.0000000037       0.0000002046
haritz    3    2    2      -0.0130401333   0.0111297712       0.0171440043
haritz    4    2    2      -0.0082440268  -0.0419268903       0.0427297099
haritz    5    2    2       0.0000000210  -0.0000000017       0.0000000211
haritz    6    2    2       0.0000000077   0.0000000015       0.0000000079
haritz    7    2    2       0.8179624914   1.0546312193       1.3346571267
haritz    8    2    2       0.8955612857  -1.7161023101       1.9357265187
haritz    9    2    2       0.0000000034  -0.0000000046       0.0000000057
haritz   10    2    2      -0.0000000000   0.0000000000       0.0000000000
haritz   11    2    2       0.0000000000  -0.0000000000       0.0000000000
haritz   12    2    2      -0.9493659372  -1.6216502945       1.8791075969
haritz   13    2    2      -0.7030334477  -3.3017096706       3.3757284810
haritz   14    2    2      -0.0000000043  -0.0000000168       0.0000000173
haritz   15    2    2      -0.0263798115  -0.5939455474       0.5945310823
haritz    1    3    2       0.8251841483   0.2211639899       0.8543081347
haritz    2    3    2      -0.0130106238  -0.0111293656       0.0171213058
haritz    3    3    2       0.0000001951   0.0000000035       0.0000001951
haritz    4    3    2       0.0000000000  -0.0000000000       0.0000000000
haritz    5    3    2       0.0035518654   0.0024284054       0.0043026621
haritz    6    3    2       0.1829884943   0.2224379822       0.2880337566
haritz    7    3    2      -0.0000000038   0.0000000002       0.0000000038
haritz    8    3    2      -0.0000000034  -0.0000000015       0.0000000037
haritz    9    3    2      -1.0873622337   0.2802620641       1.1228995733
haritz   10    3    2      -4.1302500339  -0.3229731965       4.1428585576
haritz   11    3    2       1.1511482766  -1.1867981419       1.6533699478
haritz   12    3    2      -0.0000000054   0.0000000008       0.0000000054
haritz   13    3    2       0.0000000045  -0.0000000022       0.0000000050
haritz   14    3    2      -0.0928948119   0.2012259475       0.2216333188
haritz   15    3    2      -0.0000000061   0.0000000017       0.0000000063
haritz    1    4    2      -0.5207894061  -2.0760431266       2.1403683489
haritz    2    4    2      -0.0082384547   0.0419372597       0.0427388100
haritz    3    4    2       0.0000000000   0.0000000000       0.0000000000
haritz    4    4    2       0.0000001951   0.0000000035       0.0000001951
haritz    5    4    2       0.0010223076  -0.0107493602       0.0107978635
haritz    6    4    2       0.2641612427  -0.6715557227       0.7216427446
haritz    7    4    2      -0.0000000037   0.0000000001       0.0000000037
haritz    8    4    2       0.0000000035   0.0000000015       0.0000000038
haritz    9    4    2       1.9379536822   2.0393126536       2.8132651090
haritz   10    4    2      -0.6887735209  -1.5033243880       1.6536000661
haritz   11    4    2      -4.0004022491  -1.0748550234       4.1422857791
haritz   12    4    2      -0.0000000050  -0.0000000005       0.0000000050
haritz   13    4    2      -0.0000000053   0.0000000011       0.0000000054
haritz   14    4    2       0.5536931467  -0.0417134115       0.5552621988
haritz   15    4    2       0.0000000042  -0.0000000008       0.0000000043
haritz    1    5    2       0.0000000076  -0.0000000025       0.0000000080
haritz    2    5    2       0.0000000209   0.0000000025       0.0000000211
haritz    3    5    2       0.0035484270  -0.0024287040       0.0042999927
haritz    4    5    2       0.0010215377   0.0107505015       0.0107989268
haritz    5    5    2      -0.0000001132  -0.0000000020       0.0000001133
haritz    6    5    2       0.0000001119   0.0000000344       0.0000001171
haritz    7    5    2       0.0272235496   0.0434825777       0.0513016200
haritz    8    5    2       0.0408688132  -0.0621925482       0.0744189018
haritz    9    5    2       0.0000000128  -0.0000000142       0.0000000191
haritz   10    5    2       0.0000000000  -0.0000000000       0.0000000000
haritz   11    5    2      -0.0000000000   0.0000000000       0.0000000000
haritz   12    5    2      -0.0632440500  -0.1381649215       0.1519518193
haritz   13    5    2      -0.0298126969  -0.2713418885       0.2729747559
haritz   14    5    2      -0.0000000018  -0.0000000116       0.0000000118
haritz   15    5    2       0.0034438352  -0.0614543586       0.0615507773
haritz    1    6    2       0.0000000031  -0.0000000021       0.0000000037
haritz    2    6    2       0.0000000078  -0.0000000013       0.0000000079
haritz    3    6    2       0.1829859569  -0.2224374844       0.2880317602
haritz    4    6    2       0.2641609249   0.6715567040       0.7216435414
haritz    5    6    2       0.0000001131  -0.0000000304       0.0000001171
haritz    6    6    2      -0.0000000796  -0.0000000014       0.0000000796
haritz    7    6    2      -0.0010419949  -0.0009447776       0.0014065411
haritz    8    6    2      -0.0005899875   0.0019178945       0.0020065902
haritz    9    6    2      -0.0000000395   0.0000000809       0.0000000901
haritz   10    6    2      -0.0000000000  -0.0000000000       0.0000000000
haritz   11    6    2       0.0000000000   0.0000000000       0.0000000000
haritz   12    6    2      -0.0588863468  -0.0685613937       0.0903784628
haritz   13    6    2      -0.0616980362  -0.1502045712       0.1623824525
haritz   14    6    2       0.0000000418   0.0000000907       0.0000000999
haritz   15    6    2      -0.0118925928  -0.0521226430       0.0534621706
haritz    1    7    2       0.0071925991  -0.0323421279       0.0331322610
haritz    2    7    2       0.8179630974  -1.0546309953       1.3346573212
haritz    3    7    2      -0.0000000038  -0.0000000003       0.0000000038
haritz    4    7    2      -0.0000000037  -0.0000000002       0.0000000037
haritz    5    7    2       0.0272214829  -0.0434831130       0.0513009771
haritz    6    7    2      -0.0010462603   0.0009422567       0.0014080157
haritz    7    7    2      -0.0000000458  -0.0000000008       0.0000000458
haritz    8    7    2      -0.0000000000   0.0000000000       0.0000000000
haritz    9    7    2      -0.0153587431  -0.0505341255       0.0528165583
haritz   10    7    2       0.0539236000   0.0239455282       0.0590012115
haritz   11    7    2       0.0303716817   0.0270304727       0.0406581542
haritz   12    7    2      -0.0000001365  -0.0000000043       0.0000001366
haritz   13    7    2      -0.0000000084  -0.0000000141       0.0000000164
haritz   14    7    2      -0.0344738923  -0.0141567910       0.0372674654
haritz   15    7    2       0.0000000084  -0.0000000030       0.0000000089
haritz    1    8    2       0.0381836093   0.0289882780       0.0479406746
haritz    2    8    2       0.8955616000   1.7161019948       1.9357263846
haritz    3    8    2      -0.0000000035   0.0000000013       0.0000000037
haritz    4    8    2       0.0000000035  -0.0000000014       0.0000000038
haritz    5    8    2       0.0408678829   0.0621936899       0.0744193450
haritz    6    8    2      -0.0005927952  -0.0019159457       0.0020055558
haritz    7    8    2      -0.0000000000  -0.0000000000       0.0000000000
haritz    8    8    2      -0.0000000458  -0.0000000008       0.0000000458
haritz    9    8    2       0.0758943513   0.0103163437       0.0765922940
haritz   10    8    2       0.0305486413  -0.0269190781       0.0407167809
haritz   11    8    2      -0.0539521339   0.0236576200       0.0589110833
haritz   12    8    2       0.0000000024   0.0000000162       0.0000000164
haritz   13    8    2       0.0000001029  -0.0000000898       0.0000001366
haritz   14    8    2       0.0395022457  -0.0368709592       0.0540360532
haritz   15    8    2       0.0000000348  -0.0000000252       0.0000000430
haritz    1    9    2       0.0000000168   0.0000000099       0.0000000194
haritz    2    9    2       0.0000000032   0.0000000047       0.0000000057
haritz    3    9    2      -1.0873629729  -0.2802630786       1.1229005424
haritz    4    9    2       1.9379531856  -2.0393125919       2.8132647222
haritz    5    9    2       0.0000000123   0.0000000146       0.0000000191
haritz    6    9    2      -0.0000000366  -0.0000000823       0.0000000901
haritz    7    9    2      -0.0153598923   0.0505333377       0.0528161387
haritz    8    9    2       0.0758945144  -0.0103172914       0.0765925833
haritz    9    9    2       0.0000000908   0.0000000016       0.0000000908
haritz   10    9    2      -0.0000000000   0.0000000000       0.0000000000
haritz   11    9    2       0.0000000000  -0.0000000000       0.0000000000
haritz   12    9    2      -0.0009395748   0.0020850601       0.0022869798
haritz   13    9    2      -0.0028078494   0.0030416493       0.0041395228
haritz   14    9    2       0.0000000058  -0.0000000069       0.0000000090
haritz   15    9    2      -0.0614256071   0.0477127527       0.0777792516
haritz    1   10    2       0.0000000000   0.0000000000       0.0000000000
haritz    2   10    2      -0.0000000000  -0.0000000000       0.0000000000
haritz    3   10    2      -4.1302504810   0.3229736268       4.1428590369
haritz    4   10    2      -0.6887739194   1.5033228846       1.6535988653
haritz    5   10    2       0.0000000000   0.0000000000       0.0000000000
haritz    6   10    2      -0.0000000000   0.0000000000       0.0000000000
haritz    7   10    2       0.0539200271  -0.0239495690       0.0589995863
haritz    8   10    2       0.0305454713   0.0269262365       0.0407191359
haritz    9   10    2      -0.0000000000  -0.0000000000       0.0000000000
haritz   10   10    2       0.0000001648   0.0000000029       0.0000001648
haritz   11   10    2      -0.0000000000  -0.0000000000       0.0000000000
haritz   12   10    2       0.0038795237  -0.0018679137       0.0043057874
haritz   13   10    2      -0.0023116595   0.0002994716       0.0023309768
haritz   14   10    2      -0.0000000000   0.0000000000       0.0000000000
haritz   15   10    2      -0.0346986428   0.0038212382       0.0349084184
haritz    1   11    2      -0.0000000000  -0.0000000000       0.0000000000
haritz    2   11    2       0.0000000000   0.0000000000       0.0000000000
haritz    3   11    2       1.1511484037   1.1867996969       1.6533711525
haritz    4   11    2      -4.0004016820   1.0748552808       4.1422852983
haritz    5   11    2      -0.0000000000  -0.0000000000       0.0000000000
haritz    6   11    2       0.0000000000  -0.0000000000       0.0000000000
haritz    7   11    2       0.0303748851  -0.0270233307       0.0406557996
haritz    8   11    2      -0.0539556869  -0.0236535631       0.0589127083
haritz    9   11    2       0.0000000000   0.0000000000       0.0000000000
haritz   10   11    2      -0.0000000000   0.0000000000       0.0000000000
haritz   11   11    2       0.0000001647   0.0000000029       0.0000001648
haritz   12   11    2       0.0019610243  -0.0013512321       0.0023814794
haritz   13   11    2       0.0042259164  -0.0011953888       0.0043917335
haritz   14   11    2       0.0000000000  -0.0000000000       0.0000000000
haritz   15   11    2       0.0371033025  -0.0041724868       0.0373371759
haritz    1   12    2       0.0064852685  -0.0726317025       0.0729206618
haritz    2   12    2      -0.9493677297   1.6216495692       1.8791078765
haritz    3   12    2      -0.0000000053  -0.0000000010       0.0000000054
haritz    4   12    2      -0.0000000050   0.0000000003       0.0000000050
haritz    5   12    2      -0.0632442287   0.1381648693       0.1519518463
haritz    6   12    2      -0.0588840756   0.0685628317       0.0903780740
haritz    7   12    2      -0.0000001366  -0.0000000005       0.0000001366
haritz    8   12    2       0.0000000030  -0.0000000161       0.0000000164
haritz    9   12    2      -0.0009428765  -0.0020829428       0.0022864092
haritz   10   12    2       0.0038750512   0.0018745371       0.0043046383
haritz   11   12    2       0.0019673021   0.0013383102       0.0023793595
haritz   12   12    2       0.0000000862   0.0000000015       0.0000000862
haritz   13   12    2       0.0000000000  -0.0000000000       0.0000000000
haritz   14   12    2       0.0053664488   0.0014255119       0.0055525541
haritz   15   12    2       0.0000000009   0.0000000001       0.0000000009
haritz    1   13    2      -0.0300183278  -0.1277485248       0.1312279909
haritz    2   13    2      -0.7030323736   3.3017097402       3.3757283254
haritz    3   13    2       0.0000000044   0.0000000024       0.0000000050
haritz    4   13    2      -0.0000000053  -0.0000000013       0.0000000054
haritz    5   13    2      -0.0298125933   0.2713418848       0.2729747409
haritz    6   13    2      -0.0616994896   0.1502042082       0.1623826690
haritz    7   13    2      -0.0000000089   0.0000000138       0.0000000164
haritz    8   13    2       0.0000000996   0.0000000934       0.0000001366
haritz    9   13    2      -0.0028064744  -0.0030433468       0.0041398379
haritz   10   13    2      -0.0023155471  -0.0002856373       0.0023330982
haritz   11   13    2       0.0042248626   0.0012033088       0.0043928825
haritz   12   13    2       0.0000000000   0.0000000000       0.0000000000
haritz   13   13    2       0.0000000862   0.0000000015       0.0000000862
haritz   14   13    2       0.0098872603  -0.0005958695       0.0099051995
haritz   15   13    2      -0.0000000034  -0.0000000005       0.0000000034
haritz    1   14    2       0.0000000000   0.0000000002       0.0000000002
haritz    2   14    2      -0.0000000049   0.0000000166       0.0000000173
haritz    3   14    2      -0.0928943509  -0.2012277070       0.2216347231
haritz    4   14    2       0.5536926224   0.0417129100       0.5552616383
haritz    5   14    2      -0.0000000022   0.0000000116       0.0000000118
haritz    6   14    2       0.0000000451  -0.0000000892       0.0000000999
haritz    7   14    2      -0.0344740618   0.0141547720       0.0372668554
haritz    8   14    2       0.0395034632   0.0368702715       0.0540364740
haritz    9   14    2       0.0000000056   0.0000000071       0.0000000090
haritz   10   14    2      -0.0000000000  -0.0000000000       0.0000000000
haritz   11   14    2       0.0000000000   0.0000000000       0.0000000000
haritz   12   14    2       0.0053674169  -0.0014170943       0.0055513350
haritz   13   14    2       0.0098882222   0.0005912488       0.0099058827
haritz   14   14    2       0.0000000557   0.0000000010       0.0000000557
haritz   15   14    2       0.0471124024   0.0108129402       0.0483373369
haritz    1   15    2       0.0595555610   0.1423670714       0.1543218969
haritz    2   15    2      -0.0263807035   0.5939455069       0.5945310814
haritz    3   15    2      -0.0000000060  -0.0000000019       0.0000000063
haritz    4   15    2       0.0000000042   0.0000000009       0.0000000043
haritz    5   15    2       0.0034437250   0.0614543646       0.0615507772
haritz    6   15    2      -0.0118925001   0.0521226643       0.0534621707
haritz    7   15    2       0.0000000083   0.0000000033       0.0000000089
haritz    8   15    2       0.0000000339   0.0000000264       0.0000000430
haritz    9   15    2      -0.0614240132  -0.0477148002       0.0777792488
haritz   10   15    2      -0.0346988211  -0.0038196025       0.0349084166
haritz   11   15    2       0.0371031312   0.0041739949       0.0373371743
haritz   12   15    2       0.0000000009  -0.0000000001       0.0000000009
haritz   13   15    2      -0.0000000034   0.0000000003       0.0000000034
haritz   14   15    2       0.0471129724  -0.0108104451       0.0483373344
haritz   15   15    2       0.0000000211   0.0000000004       0.0000000211
haritz    1    1    3      -0.0507687262  -0.0000047069       0.0507687264
haritz    2    1    3      -1.9947803910  -0.9405384126       2.2053936868
haritz    3    1    3      -0.0000000148   0.0000000190       0.0000000241
haritz    4    1    3       0.0000000090  -0.0000000117       0.0000000147
haritz    5    1    3       0.1039694633   0.0368037014       0.1102912587
haritz    6    1    3       0.1522387224   0.1088100867       0.1871263305
haritz    7    1    3      -0.0000000007   0.0000000009       0.0000000011
haritz    8    1    3      -0.0000000041   0.0000000023       0.0000000047
haritz    9    1    3      -0.0173544061   0.0098016933       0.0199310964
haritz   10    1    3      -0.0000000014   0.0000000025       0.0000000029
haritz   11    1    3       0.0000000014  -0.0000000020       0.0000000024
haritz   12    1    3       0.0000000007  -0.0000000031       0.0000000031
haritz   13    1    3      -0.0000000029   0.0000000099       0.0000000103
haritz   14    1    3       0.0570292603  -0.3310424322       0.3359187826
haritz   15    1    3      -0.0000000008   0.0000000019       0.0000000021
haritz    1    2    3      -1.9947800860   0.9405390595       2.2053936868
haritz    2    2    3      -0.2013343716  -0.0000037844       0.2013343717
haritz    3    2    3      -0.0000000019   0.0000000085       0.0000000087
haritz    4    2    3       0.0000000011  -0.0000000053       0.0000000054
haritz    5    2    3       1.3362875549  -0.1345685085       1.3430462065
haritz    6    2    3       3.4554869092   0.6286511239       3.5122061465
haritz    7    2    3      -0.0000000003   0.0000000019       0.0000000019
haritz    8    2    3      -0.0000000044   0.0000000064       0.0000000078
haritz    9    2    3      -0.9757624643   1.3781937561       1.6886475109
haritz   10    2    3       0.0000000000  -0.0000000002       0.0000000002
haritz   11    2    3      -0.0000000000   0.0000000003       0.0000000003
haritz   12    2    3      -0.0000000012  -0.0000000053       0.0000000055
haritz   13    2    3       0.0000000028   0.0000000176       0.0000000178
haritz   14    2    3       0.7970824067   2.8801500610       2.9884117415
haritz   15    2    3       0.0000000001   0.0000000026       0.0000000026
haritz    1    3    3      -0.0000000149  -0.0000000190       0.0000000242
haritz    2    3    3      -0.0000000019  -0.0000000085       0.0000000087
haritz    3    3    3       0.0171139819  -0.0000048764       0.0171139826
haritz    4    3    3      -0.0000000043   0.0000000014       0.0000000046
haritz    5    3    3      -0.0000000011  -0.0000000034       0.0000000036
haritz    6    3    3      -0.0000000003  -0.0000000067       0.0000000067
haritz    7    3    3      -1.6289307914   0.1024313095       1.6321481845
haritz    8    3    3      -1.4865688116  -0.6021526539       1.6038935907
haritz    9    3    3       0.0000000086   0.0000000036       0.0000000093
haritz   10    3    3       0.0000000180  -0.0000000030       0.0000000182
haritz   11    3    3       0.0000000105   0.0000000052       0.0000000117
haritz   12    3    3       2.7212792007  -0.4364657956       2.7560593025
haritz   13    3    3      -2.2671838552   1.1567259635       2.5452185737
haritz   14    3    3       0.0000000021  -0.0000000011       0.0000000024
haritz   15    3    3      -0.6273015313   0.1856592415       0.6541991785
haritz    1    4    3       0.0000000089   0.0000000117       0.0000000147
haritz    2    4    3       0.0000000011   0.0000000052       0.0000000054
haritz    3    4    3      -0.0000000040  -0.0000000016       0.0000000043
haritz    4    4    3       0.0171139822  -0.0000048760       0.0171139829
haritz    5    4    3       0.0000000007   0.0000000021       0.0000000022
haritz    6    4    3       0.0000000001   0.0000000041       0.0000000041
haritz    7    4    3      -1.6019616310   0.0786992468       1.6038935870
haritz    8    4    3       1.5042121370   0.6334457746       1.6321481865
haritz    9    4    3      -0.0000000052  -0.0000000022       0.0000000057
haritz   10    4    3      -0.0000000116   0.0000000014       0.0000000117
haritz   11    4    3       0.0000000159   0.0000000089       0.0000000183
haritz   12    4    3       2.5357879918   0.2188991528       2.5452185719
haritz   13    4    3       2.6855836169  -0.6192765822       2.7560592970
haritz   14    4    3      -0.0000000013   0.0000000007       0.0000000014
haritz   15    4    3       0.4305963593  -0.0892571130       0.4397499936
haritz    1    5    3       0.1039692325  -0.0368043535       0.1102912587
haritz    2    5    3       1.3362876709   0.1345673569       1.3430462065
haritz    3    5    3      -0.0000000011   0.0000000034       0.0000000035
haritz    4    5    3       0.0000000007  -0.0000000021       0.0000000022
haritz    5    5    3      -0.2689538685   0.0000023044       0.2689538685
haritz    6    5    3      -0.0131785292  -0.0037952368       0.0137141334
haritz    7    5    3      -0.0000000018   0.0000000073       0.0000000075
haritz    8    5    3      -0.0000000194   0.0000000227       0.0000000299
haritz    9    5    3      -0.0042170830   0.0048429028       0.0064216428
haritz   10    5    3      -0.0000000001   0.0000000004       0.0000000005
haritz   11    5    3       0.0000000001  -0.0000000003       0.0000000003
haritz   12    5    3       0.0000000006   0.0000000046       0.0000000046
haritz   13    5    3      -0.0000000008  -0.0000000148       0.0000000149
haritz   14    5    3       0.0332648916   0.1942179128       0.1970460623
haritz   15    5    3       0.0000000004  -0.0000000077       0.0000000077
haritz    1    6    3       0.1522380255  -0.1088110616       0.1871263305
haritz    2    6    3       3.4554867539  -0.6286519779       3.5122061465
haritz    3    6    3      -0.0000000003   0.0000000067       0.0000000067
haritz    4    6    3       0.0000000001  -0.0000000041       0.0000000041
haritz    5    6    3      -0.0131790926   0.0037932799       0.0137141334
haritz    6    6    3      -0.2786574682   0.0000008531       0.2786574682
haritz    7    6    3      -0.0000000000  -0.0000000009       0.0000000009
haritz    8    6    3       0.0000000015  -0.0000000033       0.0000000036
haritz    9    6    3       0.0192108134  -0.0412174850       0.0454745689
haritz   10    6    3       0.0000000001   0.0000000010       0.0000000010
haritz   11    6    3       0.0000000000  -0.0000000008       0.0000000008
haritz   12    6    3      -0.0000000006  -0.0000000015       0.0000000016
haritz   13    6    3       0.0000000017   0.0000000049       0.0000000052
haritz   14    6    3       0.0604908513   0.1252366294       0.1390803955
haritz   15    6    3       0.0000000003   0.0000000014       0.0000000014
haritz    1    7    3      -0.0000000007  -0.0000000009       0.0000000012
haritz    2    7    3      -0.0000000003  -0.0000000019       0.0000000020
haritz    3    7    3      -1.6289308195  -0.1024308619       1.6321481845
haritz    4    7    3      -1.6019616526  -0.0786988066       1.6038935870
haritz    5    7    3      -0.0000000020  -0.0000000073       0.0000000076
haritz    6    7    3      -0.0000000000   0.0000000009       0.0000000009
haritz    7    7    3      -0.3492279614   0.0000007915       0.3492279614
haritz    8    7    3       0.0000000002   0.0000000008       0.0000000008
haritz    9    7    3      -0.0000000005  -0.0000000002       0.0000000005
haritz   10    7    3       0.0000000004  -0.0000000001       0.0000000004
haritz   11    7    3       0.0000000014   0.0000000009       0.0000000017
haritz   12    7    3      -0.0505924926  -0.0006979079       0.0505973060
haritz   13    7    3      -0.0032021430  -0.0051721257       0.0060831410
haritz   14    7    3      -0.0000000007   0.0000000003       0.0000000008
haritz   15    7    3       0.0030517323  -0.0011457897       0.0032597399
haritz    1    8    3      -0.0000000041  -0.0000000023       0.0000000047
haritz    2    8    3      -0.0000000044  -0.0000000064       0.0000000078
haritz    3    8    3      -1.4865686461   0.6021530624       1.6038935907
haritz    4    8    3       1.5042119630  -0.6334461879       1.6321481865
haritz    5    8    3      -0.0000000194  -0.0000000227       0.0000000299
haritz    6    8    3       0.0000000015   0.0000000033       0.0000000036
haritz    7    8    3       0.0000000001  -0.0000000008       0.0000000008
haritz    8    8    3      -0.3492279812   0.0000007915       0.3492279812
haritz    9    8    3      -0.0000000021  -0.0000000000       0.0000000021
haritz   10    8    3       0.0000000014  -0.0000000009       0.0000000017
haritz   11    8    3      -0.0000000004  -0.0000000001       0.0000000004
haritz   12    8    3       0.0010123030   0.0059983167       0.0060831374
haritz   13    8    3       0.0375231201  -0.0339426150       0.0505972890
haritz   14    8    3      -0.0000000020   0.0000000024       0.0000000031
haritz   15    8    3       0.0125252323  -0.0094109721       0.0156667750
haritz    1    9    3      -0.0173543988  -0.0098017063       0.0199310964
haritz    2    9    3      -0.9757625693  -1.3781936818       1.6886475109
haritz    3    9    3       0.0000000086  -0.0000000036       0.0000000093
haritz    4    9    3      -0.0000000052   0.0000000022       0.0000000057
haritz    5    9    3      -0.0042171556  -0.0048428396       0.0064216428
haritz    6    9    3       0.0192080648   0.0412187659       0.0454745689
haritz    7    9    3      -0.0000000005   0.0000000002       0.0000000005
haritz    8    9    3      -0.0000000021   0.0000000000       0.0000000021
haritz    9    9    3       0.0264062469  -0.0000018304       0.0264062470
haritz   10    9    3       0.0000000001  -0.0000000001       0.0000000002
haritz   11    9    3      -0.0000000012   0.0000000006       0.0000000013
haritz   12    9    3       0.0000000015  -0.0000000016       0.0000000022
haritz   13    9    3      -0.0000000051   0.0000000050       0.0000000071
haritz   14    9    3       0.0172313135  -0.0211040090       0.0272451346
haritz   15    9    3       0.0000000064  -0.0000000050       0.0000000081
haritz    1   10    3      -0.0000000014  -0.0000000025       0.0000000029
haritz    2   10    3       0.0000000000   0.0000000002       0.0000000002
haritz    3   10    3       0.0000000180   0.0000000031       0.0000000183
haritz    4   10    3      -0.0000000116  -0.0000000014       0.0000000117
haritz    5   10    3      -0.0000000001  -0.0000000004       0.0000000005
haritz    6   10    3       0.0000000001  -0.0000000010       0.0000000010
haritz    7   10    3       0.0000000004   0.0000000001       0.0000000004
haritz    8   10    3       0.0000000014   0.0000000009       0.0000000017
haritz    9   10    3       0.0000000002   0.0000000001       0.0000000002
haritz   10   10    3       0.0387969194  -0.0000041335       0.0387969196
haritz   11   10    3      -0.0000000000   0.0000000000       0.0000000000
haritz   12   10    3      -0.0000000010   0.0000000003       0.0000000010
haritz   13   10    3       0.0000000034  -0.0000000008       0.0000000035
haritz   14   10    3       0.0000000011  -0.0000000004       0.0000000011
haritz   15   10    3       0.0000000043  -0.0000000005       0.0000000043
haritz    1   11    3       0.0000000009   0.0000000023       0.0000000024
haritz    2   11    3      -0.0000000000  -0.0000000003       0.0000000003
haritz    3   11    3       0.0000000105  -0.0000000052       0.0000000117
haritz    4   11    3       0.0000000159  -0.0000000089       0.0000000182
haritz    5   11    3       0.0000000000   0.0000000003       0.0000000003
haritz    6   11    3      -0.0000000002   0.0000000008       0.0000000008
haritz    7   11    3       0.0000000014  -0.0000000009       0.0000000017
haritz    8   11    3      -0.0000000004   0.0000000001       0.0000000004
haritz    9   11    3      -0.0000000010  -0.0000000008       0.0000000013
haritz   10   11    3      -0.0000000000   0.0000000000       0.0000000000
haritz   11   11    3       0.0387279768  -0.0000041333       0.0387279770
haritz   12   11    3      -0.0000000031   0.0000000017       0.0000000035
haritz   13   11    3      -0.0000000009   0.0000000004       0.0000000010
haritz   14   11    3      -0.0000000005   0.0000000001       0.0000000005
haritz   15   11    3      -0.0000000001   0.0000000000       0.0000000001
haritz    1   12    3       0.0000000007   0.0000000031       0.0000000031
haritz    2   12    3      -0.0000000011   0.0000000054       0.0000000055
haritz    3   12    3       2.7212792055   0.4364657656       2.7560593025
haritz    4   12    3       2.5357879894  -0.2188991808       2.5452185719
haritz    5   12    3       0.0000000005  -0.0000000046       0.0000000046
haritz    6   12    3      -0.0000000006   0.0000000015       0.0000000016
haritz    7   12    3      -0.0505924206   0.0007031076       0.0505973061
haritz    8   12    3       0.0010116864  -0.0059984206       0.0060831373
haritz    9   12    3       0.0000000015   0.0000000016       0.0000000022
haritz   10   12    3      -0.0000000010  -0.0000000003       0.0000000010
haritz   11   12    3      -0.0000000031  -0.0000000017       0.0000000035
haritz   12   12    3       0.0531586342  -0.0000019633       0.0531586343
haritz   13   12    3       0.0000000047  -0.0000000000       0.0000000047
haritz   14   12    3      -0.0000000013   0.0000000001       0.0000000013
haritz   15   12    3       0.0019358631   0.0002421134       0.0019509446
haritz    1   13    3      -0.0000000029  -0.0000000099       0.0000000103
haritz    2   13    3       0.0000000028  -0.0000000176       0.0000000178
haritz    3   13    3      -2.2671838680  -1.1567259385       2.5452185737
haritz    4   13    3       2.6855836237   0.6192765526       2.7560592970
haritz    5   13    3      -0.0000000009   0.0000000148       0.0000000149
haritz    6   13    3       0.0000000017  -0.0000000049       0.0000000052
haritz    7   13    3      -0.0032016115   0.0051724547       0.0060831409
haritz    8   13    3       0.0375266084   0.0339387584       0.0505972890
haritz    9   13    3      -0.0000000051  -0.0000000050       0.0000000071
haritz   10   13    3       0.0000000034   0.0000000008       0.0000000035
haritz   11   13    3      -0.0000000009  -0.0000000005       0.0000000010
haritz   12   13    3       0.0000000047   0.0000000002       0.0000000047
haritz   13   13    3       0.0531586316  -0.0000019632       0.0531586316
haritz   14   13    3       0.0000000042  -0.0000000005       0.0000000042
haritz   15   13    3      -0.0077035763  -0.0008967068       0.0077555897
haritz    1   14    3       0.0570283490   0.3310425892       0.3359187826
haritz    2   14    3       0.7970829874  -2.8801499003       2.9884117415
haritz    3   14    3       0.0000000021   0.0000000011       0.0000000024
haritz    4   14    3      -0.0000000013  -0.0000000007       0.0000000014
haritz    5   14    3       0.0332641860  -0.1942180336       0.1970460623
haritz    6   14    3       0.0604877628  -0.1252381211       0.1390803955
haritz    7   14    3      -0.0000000007  -0.0000000003       0.0000000008
haritz    8   14    3      -0.0000000020  -0.0000000024       0.0000000031
haritz    9   14    3       0.0172317259   0.0211036722       0.0272451346
haritz   10   14    3       0.0000000011   0.0000000004       0.0000000011
haritz   11   14    3      -0.0000000005  -0.0000000002       0.0000000005
haritz   12   14    3      -0.0000000013  -0.0000000001       0.0000000013
haritz   13   14    3       0.0000000042   0.0000000005       0.0000000042
haritz   14   14    3       0.1143613604  -0.0000009912       0.1143613604
haritz   15   14    3      -0.0000000056  -0.0000000013       0.0000000057
haritz    1   15    3      -0.0000000008  -0.0000000019       0.0000000021
haritz    2   15    3       0.0000000001  -0.0000000026       0.0000000026
haritz    3   15    3      -0.6273016656  -0.1856587875       0.6541991784
haritz    4   15    3       0.4305964239   0.0892568014       0.4397499936
haritz    5   15    3       0.0000000004   0.0000000077       0.0000000077
haritz    6   15    3       0.0000000003  -0.0000000014       0.0000000014
haritz    7   15    3       0.0030518494   0.0011454776       0.0032597398
haritz    8   15    3       0.0125261947   0.0094096911       0.0156667750
haritz    9   15    3       0.0000000064   0.0000000050       0.0000000081
haritz   10   15    3       0.0000000043   0.0000000005       0.0000000043
haritz   11   15    3      -0.0000000001  -0.0000000000       0.0000000001
haritz   12   15    3       0.0019358661  -0.0002420893       0.0019509446
haritz   13   15    3      -0.0077035875   0.0008966109       0.0077555897
haritz   14   15    3      -0.0000000056   0.0000000013       0.0000000057
haritz   15   15    3       0.0408413512  -0.0000003855       0.0408413512
haritz    1    1    4       0.0000000004   0.0000000000       0.0000000004
haritz    2    1    4      -0.0000000000  -0.0000000000       0.0000000000
haritz    3    1    4      -0.0007787394   0.0017108435       0.0018797395
haritz    4    1    4       0.0004471311   0.0006017609       0.0007496948
haritz    5    1    4       0.0000000000   0.0000000000       0.0000000000
haritz    6    1    4       0.0000000000   0.0000000000       0.0000000000
haritz    7    1    4       0.0029919525  -0.0344021129       0.0345319729
haritz    8    1    4       0.0224191234  -0.0080179329       0.0238097531
haritz    9    1    4       0.0000000000  -0.0000000000       0.0000000000
haritz   10    1    4       0.0000000000  -0.0000000000       0.0000000000
haritz   11    1    4      -0.0000000000   0.0000000000       0.0000000000
haritz   12    1    4      -0.0017189998   0.0306091683       0.0306573995
haritz   13    1    4       0.0062631537  -0.0158752074       0.0170660278
haritz   14    1    4      -0.0000000000   0.0000000000       0.0000000000
haritz   15    1    4       0.0016219452  -0.0038890759       0.0042137415
haritz    1    2    4      -0.0000000000   0.0000000000       0.0000000000
haritz    2    2    4       0.0000000004   0.0000000000       0.0000000004
haritz    3    2    4      -0.0005552149  -0.0400526586       0.0400565066
haritz    4    2    4      -0.0140756597  -0.0075774406       0.0159856749
haritz    5    2    4       0.0000000000  -0.0000000000       0.0000000000
haritz    6    2    4       0.0000000000   0.0000000000       0.0000000000
haritz    7    2    4      -0.0163272506  -0.0441972413       0.0471166133
haritz    8    2    4       0.0230046606  -0.0229398268       0.0324876909
haritz    9    2    4       0.0000000000  -0.0000000000       0.0000000000
haritz   10    2    4       0.0000000000  -0.0000000000       0.0000000000
haritz   11    2    4       0.0000000000  -0.0000000000       0.0000000000
haritz   12    2    4      -0.0038917868  -0.0096189577       0.0103764325
haritz   13    2    4       0.0003744789   0.0057622811       0.0057744366
haritz   14    2    4      -0.0000000000  -0.0000000000       0.0000000000
haritz   15    2    4       0.0000963104   0.0021107244       0.0021129205
haritz    1    3    4      -0.0007785622  -0.0017115041       0.0018802674
haritz    2    3    4      -0.0005541097   0.0400513528       0.0400551857
haritz    3    3    4       0.0000000004   0.0000000000       0.0000000004
haritz    4    3    4       0.0000000000  -0.0000000000       0.0000000000
haritz    5    3    4      -0.0016549890  -0.0190826197       0.0191542518
haritz    6    3    4       0.0040431419  -0.0205998773       0.0209929021
haritz    7    3    4      -0.0000000000   0.0000000000       0.0000000000
haritz    8    3    4      -0.0000000000  -0.0000000000       0.0000000000
haritz    9    3    4      -0.0005501054  -0.0004012292       0.0006808824
haritz   10    3    4       0.0009684447  -0.0009995425       0.0013917509
haritz   11    3    4       0.0034725814   0.0002828282       0.0034840800
haritz   12    3    4      -0.0000000000   0.0000000000       0.0000000000
haritz   13    3    4       0.0000000000  -0.0000000000       0.0000000000
haritz   14    3    4      -0.0074534903   0.0019517946       0.0077048050
haritz   15    3    4      -0.0000000000   0.0000000000       0.0000000000
haritz    1    4    4       0.0004454692  -0.0006013439       0.0007483698
haritz    2    4    4      -0.0140798648   0.0075766109       0.0159889845
haritz    3    4    4       0.0000000000   0.0000000000       0.0000000000
haritz    4    4    4       0.0000000004   0.0000000000       0.0000000004
haritz    5    4    4       0.0063342838  -0.0042794216       0.0076443836
haritz    6    4    4       0.0079680724  -0.0025857371       0.0083771245
haritz    7    4    4      -0.0000000000   0.0000000000       0.0000000000
haritz    8    4    4       0.0000000000   0.0000000000       0.0000000000
haritz    9    4    4       0.0000328072  -0.0002702611       0.0002722451
haritz   10    4    4      -0.0033624928  -0.0008891457       0.0034780652
haritz   11    4    4       0.0005718682   0.0012655934       0.0013887980
haritz   12    4    4      -0.0000000000  -0.0000000000       0.0000000000
haritz   13    4    4      -0.0000000000   0.0000000000       0.0000000000
haritz   14    4    4      -0.0021286266  -0.0022219207       0.0030770087
haritz   15    4    4       0.0000000000  -0.0000000000       0.0000000000
haritz    1    5    4       0.0000000000  -0.0000000000       0.0000000000
haritz    2    5    4       0.0000000000   0.0000000000       0.0000000000
haritz    3    5    4      -0.0016552413   0.0190822526       0.0191539079
haritz    4    5    4       0.0063353948   0.0042793164       0.0076452453
haritz    5    5    4      -0.0000000002  -0.0000000000       0.0000000002
haritz    6    5    4       0.0000000002   0.0000000001       0.0000000002
haritz    7    5    4       0.1245958816   0.4809356061       0.4968130342
haritz    8    5    4      -0.2655699661   0.2163583108       0.3425468224
haritz    9    5    4       0.0000000000  -0.0000000000       0.0000000000
haritz   10    5    4       0.0000000000  -0.0000000000       0.0000000000
haritz   11    5    4      -0.0000000000   0.0000000000       0.0000000000
haritz   12    5    4       0.0676790752   0.2317245909       0.2414057648
haritz   13    5    4       0.0047936034  -0.1342939725       0.1343794987
haritz   14    5    4      -0.0000000000  -0.0000000000       0.0000000000
haritz   15    5    4       0.0031099628  -0.0565562597       0.0566417018
haritz    1    6    4       0.0000000000  -0.0000000000       0.0000000000
haritz    2    6    4       0.0000000000  -0.0000000000       0.0000000000
haritz    3    6    4       0.0040424755   0.0205993291       0.0209922359
haritz    4    6    4       0.0079700842   0.0025849458       0.0083787939
haritz    5    6    4       0.0000000002  -0.0000000000       0.0000000002
haritz    6    6    4      -0.0000000001  -0.0000000000       0.0000000001
haritz    7    6    4      -0.0026706585  -0.0045161827       0.0052467440
haritz    8    6    4       0.0020633220  -0.0029692739       0.0036157827
haritz    9    6    4      -0.0000000001   0.0000000001       0.0000000002
haritz   10    6    4      -0.0000000000  -0.0000000000       0.0000000000
haritz   11    6    4       0.0000000000   0.0000000000       0.0000000000
haritz   12    6    4      -0.0911448425  -0.1439385322       0.1703692560
haritz   13    6    4       0.0229697475   0.0920110434       0.0948348111
haritz   14    6    4       0.0000000001   0.0000000002       0.0000000002
haritz   15    6    4       0.0143827946   0.0627354719       0.0643630656
haritz    1    7    4       0.0029904417   0.0344017766       0.0345315069
haritz    2    7    4      -0.0163265446   0.0441977888       0.0471168823
haritz    3    7    4      -0.0000000000  -0.0000000000       0.0000000000
haritz    4    7    4      -0.0000000000  -0.0000000000       0.0000000000
haritz    5    7    4       0.1245966924  -0.4809350986       0.4968127463
haritz    6    7    4      -0.0026695586   0.0045174088       0.0052472398
haritz    7    7    4      -0.0000000001  -0.0000000000       0.0000000001
haritz    8    7    4      -0.0000000000  -0.0000000000       0.0000000000
haritz    9    7    4      -0.0474121477  -0.0691748386       0.0838634011
haritz   10    7    4       0.0287842817   0.0254441892       0.0384179858
haritz   11    7    4      -0.0508496819  -0.0228021236       0.0557281526
haritz   12    7    4      -0.0000000002  -0.0000000000       0.0000000002
haritz   13    7    4      -0.0000000000  -0.0000000000       0.0000000000
haritz   14    7    4      -0.0662632599  -0.0055705590       0.0664969979
haritz   15    7    4       0.0000000000  -0.0000000000       0.0000000000
haritz    1    8    4       0.0224204805   0.0080161449       0.0238104289
haritz    2    8    4       0.0230035120   0.0229404262       0.0324873009
haritz    3    8    4      -0.0000000000   0.0000000000       0.0000000000
haritz    4    8    4       0.0000000000  -0.0000000000       0.0000000000
haritz    5    8    4      -0.2655711253  -0.2163575491       0.3425472400
haritz    6    8    4       0.0020610404   0.0029699822       0.0036150632
haritz    7    8    4      -0.0000000000   0.0000000000       0.0000000000
haritz    8    8    4      -0.0000000001  -0.0000000000       0.0000000001
haritz    9    8    4      -0.0569827117   0.0098240003       0.0578233553
haritz   10    8    4      -0.0509501434   0.0225581221       0.0557206064
haritz   11    8    4      -0.0289097214   0.0253096661       0.0384233157
haritz   12    8    4       0.0000000000   0.0000000000       0.0000000000
haritz   13    8    4       0.0000000002  -0.0000000002       0.0000000002
haritz   14    8    4      -0.0225430721   0.0399254948       0.0458501389
haritz   15    8    4       0.0000000001  -0.0000000000       0.0000000001
haritz    1    9    4       0.0000000000   0.0000000000       0.0000000000
haritz    2    9    4       0.0000000000   0.0000000000       0.0000000000
haritz    3    9    4      -0.0005501177   0.0004012771       0.0006809206
haritz    4    9    4       0.0000327174   0.0002701758       0.0002721496
haritz    5    9    4       0.0000000000   0.0000000000       0.0000000000
haritz    6    9    4      -0.0000000001  -0.0000000001       0.0000000002
haritz    7    9    4      -0.0474125283   0.0691747230       0.0838635209
haritz    8    9    4      -0.0569826340  -0.0098234286       0.0578231816
haritz    9    9    4       0.0000000002   0.0000000000       0.0000000002
haritz   10    9    4      -0.0000000000   0.0000000000       0.0000000000
haritz   11    9    4       0.0000000000  -0.0000000000       0.0000000000
haritz   12    9    4      -0.0022216148   0.0034643483       0.0041154928
haritz   13    9    4       0.0017801960  -0.0014420711       0.0022909969
haritz   14    9    4       0.0000000000  -0.0000000000       0.0000000000
haritz   15    9    4       0.0030768722  -0.0023957279       0.0038995711
haritz    1   10    4       0.0000000000   0.0000000000       0.0000000000
haritz    2   10    4       0.0000000000   0.0000000000       0.0000000000
haritz    3   10    4       0.0009684886   0.0010001038       0.0013921845
haritz    4   10    4      -0.0033622885   0.0008892391       0.0034778916
haritz    5   10    4       0.0000000000   0.0000000000       0.0000000000
haritz    6   10    4      -0.0000000000   0.0000000000       0.0000000000
haritz    7   10    4       0.0287847932  -0.0254430376       0.0384176064
haritz    8   10    4      -0.0509507179  -0.0225574705       0.0557208680
haritz    9   10    4      -0.0000000000  -0.0000000000       0.0000000000
haritz   10   10    4       0.0000000003   0.0000000000       0.0000000003
haritz   11   10    4       0.0000000000   0.0000000000       0.0000000000
haritz   12   10    4       0.0028074760  -0.0018966001       0.0033880693
haritz   13   10    4       0.0058580564  -0.0016457882       0.0060848536
haritz   14   10    4      -0.0000000000   0.0000000000       0.0000000000
haritz   15   10    4       0.0084478909  -0.0009207395       0.0084979187
haritz    1   11    4      -0.0000000000  -0.0000000000       0.0000000000
haritz    2   11    4       0.0000000000   0.0000000000       0.0000000000
haritz    3   11    4       0.0034727454  -0.0002829871       0.0034842563
haritz    4   11    4       0.0005720167  -0.0012650408       0.0013883557
haritz    5   11    4      -0.0000000000  -0.0000000000       0.0000000000
haritz    6   11    4       0.0000000000  -0.0000000000       0.0000000000
haritz    7   11    4      -0.0508491004   0.0228027768       0.0557278893
haritz    8   11    4      -0.0289092119  -0.0253108278       0.0384236976
haritz    9   11    4       0.0000000000   0.0000000000       0.0000000000
haritz   10   11    4       0.0000000000  -0.0000000000       0.0000000000
haritz   11   11    4       0.0000000003   0.0000000000       0.0000000003
haritz   12   11    4      -0.0054783159   0.0026605582       0.0060901983
haritz   13   11    4       0.0033606521  -0.0004486713       0.0033904703
haritz   14   11    4       0.0000000000  -0.0000000000       0.0000000000
haritz   15   11    4       0.0077536333  -0.0008807014       0.0078034906
haritz    1   12    4      -0.0017166840  -0.0306089616       0.0306570633
haritz    2   12    4      -0.0038931233   0.0096181753       0.0103762086
haritz    3   12    4      -0.0000000000  -0.0000000000       0.0000000000
haritz    4   12    4      -0.0000000000   0.0000000000       0.0000000000
haritz    5   12    4       0.0676790358  -0.2317246090       0.2414057711
haritz    6   12    4      -0.0911446732   0.1439386777       0.1703692882
haritz    7   12    4      -0.0000000002  -0.0000000000       0.0000000002
haritz    8   12    4       0.0000000000  -0.0000000000       0.0000000000
haritz    9   12    4      -0.0022214265  -0.0034644335       0.0041154629
haritz   10   12    4       0.0028084588   0.0018945588       0.0033877417
haritz   11   12    4      -0.0054776005  -0.0026616100       0.0060900143
haritz   12   12    4       0.0000000002   0.0000000000       0.0000000002
haritz   13   12    4       0.0000000000   0.0000000000       0.0000000000
haritz   14   12    4       0.0219517828   0.0025249985       0.0220965242
haritz   15   12    4       0.0000000000   0.0000000000       0.0000000000
haritz    1   13    4       0.0062672196   0.0158742520       0.0170666318
haritz    2   13    4       0.0003717578  -0.0057628605       0.0057748390
haritz    3   13    4       0.0000000000   0.0000000000       0.0000000000
haritz    4   13    4      -0.0000000000  -0.0000000000       0.0000000000
haritz    5   13    4       0.0047935259   0.1342939640       0.1343794874
haritz    6   13    4       0.0229701185  -0.0920108910       0.0948347531
haritz    7   13    4      -0.0000000000   0.0000000000       0.0000000000
haritz    8   13    4       0.0000000002   0.0000000002       0.0000000002
haritz    9   13    4       0.0017804688   0.0014418196       0.0022910506
haritz   10   13    4       0.0058578944   0.0016470388       0.0060850360
haritz   11   13    4       0.0033612782   0.0004464734       0.0033908007
haritz   12   13    4       0.0000000000  -0.0000000000       0.0000000000
haritz   13   13    4       0.0000000002   0.0000000000       0.0000000002
haritz   14   13    4      -0.0120403439   0.0025067780       0.0122985291
haritz   15   13    4      -0.0000000000  -0.0000000000       0.0000000000
haritz    1   14    4      -0.0000000000  -0.0000000000       0.0000000000
haritz    2   14    4      -0.0000000000   0.0000000000       0.0000000000
haritz    3   14    4      -0.0074540784  -0.0019515230       0.0077053051
haritz    4   14    4      -0.0021285047   0.0022203024       0.0030757560
haritz    5   14    4      -0.0000000000   0.0000000000       0.0000000000
haritz    6   14    4       0.0000000001  -0.0000000002       0.0000000002
haritz    7   14    4      -0.0662634244   0.0055701582       0.0664971284
haritz    8   14    4      -0.0225435008  -0.0399250355       0.0458499497
haritz    9   14    4       0.0000000000   0.0000000000       0.0000000000
haritz   10   14    4      -0.0000000000  -0.0000000000       0.0000000000
haritz   11   14    4       0.0000000000   0.0000000000       0.0000000000
haritz   12   14    4       0.0219515869  -0.0025257360       0.0220964139
haritz   13   14    4      -0.0120402615  -0.0025081463       0.0122987273
haritz   14   14    4       0.0000000001   0.0000000000       0.0000000001
haritz   15   14    4      -0.0237836103  -0.0054330948       0.0243962833
haritz    1   15    4       0.0016224420   0.0038888681       0.0042137410
haritz    2   15    4       0.0000957037  -0.0021107514       0.0021129199
haritz    3   15    4      -0.0000000000  -0.0000000000       0.0000000000
haritz    4   15    4       0.0000000000   0.0000000000       0.0000000000
haritz    5   15    4       0.0031099130   0.0565562625       0.0566417018
haritz    6   15    4       0.0143829982  -0.0627354255       0.0643630659
haritz    7   15    4       0.0000000000   0.0000000000       0.0000000000
haritz    8   15    4       0.0000000001   0.0000000000       0.0000000001
haritz    9   15    4       0.0030773025   0.0023951740       0.0038995704
haritz   10   15    4       0.0084478747   0.0009208866       0.0084979186
haritz   11   15    4       0.0077536506   0.0008805484       0.0078034904
haritz   12   15    4       0.0000000000  -0.0000000000       0.0000000000
haritz   13   15    4      -0.0000000000   0.0000000000       0.0000000000
haritz   14   15    4      -0.0237835133   0.0054335173       0.0243962828
haritz   15   15    4       0.0000000000   0.0000000000       0.0000000000
haritz    1    1    5      -0.0000000004   0.0000000000       0.0000000004
haritz    2    1    5       0.0000000000   0.0000000000       0.0000000000
haritz    3    1    5      -0.0007246428   0.0001921947       0.0007496973
haritz    4    1    5       0.0004566171  -0.0018234352       0.0018797380
haritz    5    1    5      -0.0000000000  -0.0000000000       0.0000000000
haritz    6    1    5      -0.0000000000  -0.0000000000       0.0000000000
haritz    7    1    5       0.0051736254   0.0232408675       0.0238097527
haritz    8    1    5       0.0275059624  -0.0208777206       0.0345319734
haritz    9    1    5      -0.0000000000   0.0000000000       0.0000000000
haritz   10    1    5      -0.0000000000   0.0000000000       0.0000000000
haritz   11    1    5       0.0000000000  -0.0000000000       0.0000000000
haritz   12    1    5      -0.0015155742  -0.0169985990       0.0170660286
haritz   13    1    5       0.0070116619  -0.0298448108       0.0306573993
haritz   14    1    5       0.0000000000  -0.0000000000       0.0000000000
haritz   15    1    5       0.0017641137  -0.0042177515       0.0045718186
haritz    1    2    5       0.0000000000  -0.0000000000       0.0000000000
haritz    2    2    5      -0.0000000004   0.0000000000       0.0000000004
haritz    3    2    5       0.0122007181  -0.0103288079       0.0159856747
haritz    4    2    5       0.0077535933   0.0392989253       0.0400565069
haritz    5    2    5      -0.0000000000   0.0000000000       0.0000000000
haritz    6    2    5      -0.0000000000  -0.0000000000       0.0000000000
[...]
haritz   13    2    6       0.0000000000   0.0000000002       0.0000000002
haritz   14    2    6       0.0056885221   0.0205561832       0.0213287588
haritz   15    2    6      -0.0000000000  -0.0000000002       0.0000000002
haritz    1    3    6      -0.0000000002  -0.0000000005       0.0000000006
haritz    2    3    6       0.0000000002  -0.0000000072       0.0000000072
haritz    3    3    6      -0.0220737245  -0.0000064008       0.0220737254
haritz    4    3    6      -0.0000000052  -0.0000000015       0.0000000054
haritz    5    3    6      -0.0000000001  -0.0000000008       0.0000000008
haritz    6    3    6       0.0000000001  -0.0000000005       0.0000000005
haritz    7    3    6       0.0422832931  -0.0026585801       0.0423667903
haritz    8    3    6       0.0385877757   0.0156307630       0.0416333662
haritz    9    3    6      -0.0000000003  -0.0000000002       0.0000000003
haritz   10    3    6       0.0000000001  -0.0000000001       0.0000000001
haritz   11    3    6       0.0000000002   0.0000000000       0.0000000003
haritz   12    3    6      -0.0231352080   0.0037106341       0.0234308911
haritz   13    3    6       0.0192746804  -0.0098339953       0.0216384096
haritz   14    3    6      -0.0000000004   0.0000000001       0.0000000005
haritz   15    3    6       0.0031060950  -0.0009189626       0.0032391849
haritz    1    4    6       0.0000000001  -0.0000000002       0.0000000003
haritz    2    4    6       0.0000000027  -0.0000000018       0.0000000032
haritz    3    4    6      -0.0000000053   0.0000000015       0.0000000055
haritz    4    4    6      -0.0220737346  -0.0000064010       0.0220737356
haritz    5    4    6       0.0000000003  -0.0000000002       0.0000000003
haritz    6    4    6       0.0000000002  -0.0000000001       0.0000000002
haritz    7    4    6       0.0415832320  -0.0020425556       0.0416333666
haritz    8    4    6      -0.0390457500  -0.0164430634       0.0423667903
haritz    9    4    6       0.0000000000  -0.0000000002       0.0000000002
haritz   10    4    6      -0.0000000002  -0.0000000001       0.0000000003
haritz   11    4    6       0.0000000000   0.0000000001       0.0000000001
haritz   12    4    6      -0.0215582325  -0.0018610099       0.0216384090
haritz   13    4    6      -0.0228317401   0.0052648171       0.0234308911
haritz   14    4    6      -0.0000000002  -0.0000000001       0.0000000002
haritz   15    4    6      -0.0021320894   0.0004417448       0.0021773708
haritz    1    5    6      -0.0658847789   0.0233220192       0.0698907767
haritz    2    5    6      -0.1474698991  -0.0148513986       0.1482158399
haritz    3    5    6      -0.0000000001   0.0000000008       0.0000000008
haritz    4    5    6       0.0000000003   0.0000000002       0.0000000003
haritz    5    5    6       0.2629570424   0.0000030268       0.2629570424
haritz    6    5    6       0.6368408870   0.1833489013       0.6627089368
haritz    7    5    6      -0.0000000007  -0.0000000027       0.0000000028
haritz    8    5    6       0.0000000013  -0.0000000010       0.0000000016
haritz    9    5    6       0.1031331376  -0.1184363216       0.1570465101
haritz   10    5    6      -0.0000000001   0.0000000007       0.0000000008
haritz   11    5    6      -0.0000000001   0.0000000003       0.0000000003
haritz   12    5    6      -0.0000000004  -0.0000000013       0.0000000014
haritz   13    5    6      -0.0000000000   0.0000000006       0.0000000006
haritz   14    5    6      -0.0355899419  -0.2077978306       0.2108235812
haritz   15    5    6      -0.0000000000   0.0000000003       0.0000000003
haritz    1    6    6      -0.1085988492   0.0776187737       0.1334855201
haritz    2    6    6      -0.2330156073   0.0423916016       0.2368402862
haritz    3    6    6       0.0000000001   0.0000000005       0.0000000005
haritz    4    6    6       0.0000000002   0.0000000001       0.0000000002
haritz    5    6    6       0.6368401473  -0.1833514704       0.6627089368
haritz    6    6    6       0.2737482621   0.0000011213       0.2737482621
haritz    7    6    6      -0.0000000004  -0.0000000007       0.0000000008
haritz    8    6    6       0.0000000003  -0.0000000004       0.0000000005
haritz    9    6    6      -0.0408667632   0.0876934449       0.0967482952
haritz   10    6    6       0.0000000003   0.0000000026       0.0000000026
haritz   11    6    6       0.0000000001   0.0000000011       0.0000000011
haritz   12    6    6       0.0000000006   0.0000000009       0.0000000011
haritz   13    6    6      -0.0000000001  -0.0000000005       0.0000000005
haritz   14    6    6       0.0385358878   0.0797797249       0.0885992052
haritz   15    6    6      -0.0000000000  -0.0000000002       0.0000000002
haritz    1    7    6      -0.0000000003  -0.0000000040       0.0000000040
haritz    2    7    6       0.0000000001  -0.0000000003       0.0000000003
haritz    3    7    6       0.0422832561   0.0026591678       0.0423667903
haritz    4    7    6       0.0415832036   0.0020431337       0.0416333666
haritz    5    7    6      -0.0000000007   0.0000000027       0.0000000028
haritz    6    7    6      -0.0000000004   0.0000000007       0.0000000008
haritz    7    7    6       0.3445264488   0.0000010403       0.3445264488
haritz    8    7    6       0.0000000007   0.0000000008       0.0000000011
haritz    9    7    6      -0.0000000001  -0.0000000002       0.0000000002
haritz   10    7    6      -0.0000000012  -0.0000000010       0.0000000015
haritz   11    7    6       0.0000000018   0.0000000008       0.0000000020
haritz   12    7    6      -0.0301461504  -0.0004139921       0.0301489929
haritz   13    7    6      -0.0019082232  -0.0030817533       0.0036247095
haritz   14    7    6      -0.0000000002  -0.0000000000       0.0000000002
haritz   15    7    6       0.0056063513  -0.0021031186       0.0059878445
haritz    1    8    6      -0.0000000023  -0.0000000008       0.0000000024
haritz    2    8    6      -0.0000000001  -0.0000000001       0.0000000002
haritz    3    8    6       0.0385879930  -0.0156302266       0.0416333662
haritz    4    8    6      -0.0390459785   0.0164425206       0.0423667903
haritz    5    8    6       0.0000000013   0.0000000010       0.0000000016
haritz    6    8    6       0.0000000003   0.0000000004       0.0000000005
haritz    7    8    6       0.0000000008  -0.0000000008       0.0000000011
haritz    8    8    6       0.3445264560   0.0000010403       0.3445264560
haritz    9    8    6      -0.0000000001   0.0000000000       0.0000000002
haritz   10    8    6       0.0000000018  -0.0000000008       0.0000000020
haritz   11    8    6       0.0000000012  -0.0000000010       0.0000000015
haritz   12    8    6       0.0006034120   0.0035741320       0.0036247104
haritz   13    8    6       0.0223573440  -0.0202264912       0.0301489930
haritz   14    8    6      -0.0000000001   0.0000000001       0.0000000001
haritz   15    8    6       0.0230074472  -0.0172866726       0.0287779720
haritz    1    9    6       0.0545489442   0.0308090233       0.0626480904
haritz    2    9    6       0.0039092675   0.0055217029       0.0067654693
haritz    3    9    6      -0.0000000003   0.0000000002       0.0000000004
haritz    4    9    6       0.0000000000   0.0000000002       0.0000000002
haritz    5    9    6       0.1031330423   0.1184364045       0.1570465101
haritz    6    9    6      -0.0408703717  -0.0876917632       0.0967482952
haritz    7    9    6      -0.0000000001   0.0000000002       0.0000000002
haritz    8    9    6      -0.0000000001  -0.0000000000       0.0000000001
haritz    9    9    6      -0.0280864218  -0.0000024024       0.0280864219
haritz   10    9    6       0.0000000032  -0.0000000020       0.0000000037
haritz   11    9    6       0.0000000013  -0.0000000007       0.0000000015
haritz   12    9    6       0.0000000005  -0.0000000008       0.0000000009
haritz   13    9    6      -0.0000000003   0.0000000003       0.0000000004
haritz   14    9    6      -0.0238418057   0.0291990586       0.0376963755
haritz   15    9    6      -0.0000000004   0.0000000003       0.0000000006
haritz    1   10    6      -0.0000000038  -0.0000000068       0.0000000078
haritz    2   10    6       0.0000000000   0.0000000000       0.0000000000
haritz    3   10    6       0.0000000001   0.0000000001       0.0000000001
haritz    4   10    6      -0.0000000002   0.0000000001       0.0000000003
haritz    5   10    6      -0.0000000001  -0.0000000007       0.0000000008
haritz    6   10    6       0.0000000003  -0.0000000026       0.0000000026
haritz    7   10    6      -0.0000000012   0.0000000010       0.0000000015
haritz    8   10    6       0.0000000018   0.0000000008       0.0000000020
haritz    9   10    6       0.0000000032   0.0000000020       0.0000000037
haritz   10   10    6      -0.0433806453  -0.0000054261       0.0433806456
haritz   11   10    6       0.0000000000  -0.0000000000       0.0000000000
haritz   12   10    6       0.0000000018  -0.0000000012       0.0000000022
haritz   13   10    6       0.0000000033  -0.0000000010       0.0000000035
haritz   14   10    6       0.0000000019  -0.0000000007       0.0000000021
haritz   15   10    6       0.0000000004  -0.0000000000       0.0000000004
haritz    1   11    6      -0.0000000015  -0.0000000029       0.0000000032
haritz    2   11    6       0.0000000000  -0.0000000000       0.0000000000
haritz    3   11    6       0.0000000002  -0.0000000000       0.0000000003
haritz    4   11    6       0.0000000000  -0.0000000001       0.0000000001
haritz    5   11    6      -0.0000000000  -0.0000000003       0.0000000003
haritz    6   11    6       0.0000000002  -0.0000000011       0.0000000011
haritz    7   11    6       0.0000000018  -0.0000000008       0.0000000020
haritz    8   11    6       0.0000000012   0.0000000010       0.0000000015
haritz    9   11    6       0.0000000013   0.0000000008       0.0000000015
haritz   10   11    6       0.0000000000  -0.0000000000       0.0000000000
haritz   11   11    6      -0.0433829304  -0.0000054259       0.0433829307
haritz   12   11    6      -0.0000000031   0.0000000015       0.0000000035
haritz   13   11    6       0.0000000022  -0.0000000003       0.0000000022
haritz   14   11    6       0.0000000008  -0.0000000003       0.0000000008
haritz   15   11    6       0.0000000004  -0.0000000000       0.0000000004
haritz    1   12    6       0.0000000004   0.0000000071       0.0000000071
haritz    2   12    6      -0.0000000001   0.0000000003       0.0000000003
haritz    3   12    6      -0.0231352017  -0.0037106738       0.0234308911
haritz    4   12    6      -0.0215582357   0.0018609729       0.0216384090
haritz    5   12    6      -0.0000000004   0.0000000013       0.0000000014
haritz    6   12    6       0.0000000006  -0.0000000009       0.0000000011
haritz    7   12    6      -0.0301460559   0.0004208188       0.0301489929
haritz    8   12    6       0.0006026026  -0.0035742686       0.0036247104
haritz    9   12    6       0.0000000005   0.0000000008       0.0000000009
haritz   10   12    6       0.0000000018   0.0000000012       0.0000000022
haritz   11   12    6      -0.0000000031  -0.0000000015       0.0000000035
haritz   12   12    6      -0.0562021605  -0.0000025764       0.0562021606
haritz   13   12    6      -0.0000000029  -0.0000000005       0.0000000030
haritz   14   12    6       0.0000000017   0.0000000002       0.0000000017
haritz   15   12    6       0.0093819168   0.0011690119       0.0094544673
haritz    1   13    6      -0.0000000013  -0.0000000032       0.0000000034
haritz    2   13    6       0.0000000000  -0.0000000002       0.0000000002
haritz    3   13    6       0.0192746635   0.0098340284       0.0216384096
haritz    4   13    6      -0.0228317311  -0.0052648562       0.0234308911
haritz    5   13    6      -0.0000000000  -0.0000000006       0.0000000006
haritz    6   13    6      -0.0000000001   0.0000000005       0.0000000005
haritz    7   13    6      -0.0019075252   0.0030821853       0.0036247095
haritz    8   13    6       0.0223619238   0.0202214278       0.0301489930
haritz    9   13    6      -0.0000000003  -0.0000000003       0.0000000004
haritz   10   13    6       0.0000000033   0.0000000010       0.0000000035
haritz   11   13    6       0.0000000022   0.0000000003       0.0000000022
haritz   12   13    6      -0.0000000029   0.0000000004       0.0000000030
haritz   13   13    6      -0.0562021566  -0.0000025765       0.0562021566
haritz   14   13    6      -0.0000000008   0.0000000002       0.0000000008
haritz   15   13    6      -0.0373393715  -0.0043471369       0.0375915717
haritz    1   14    6       0.0052228245   0.0303211844       0.0307677122
haritz    2   14    6       0.0056892839  -0.0205559724       0.0213287588
haritz    3   14    6      -0.0000000004  -0.0000000001       0.0000000005
haritz    4   14    6      -0.0000000002   0.0000000001       0.0000000002
haritz    5   14    6      -0.0355908685   0.2077976719       0.2108235812
haritz    6   14    6       0.0385318327  -0.0797816835       0.0885992052
haritz    7   14    6      -0.0000000002   0.0000000000       0.0000000002
haritz    8   14    6      -0.0000000001  -0.0000000001       0.0000000001
haritz    9   14    6      -0.0238412648  -0.0291995003       0.0376963755
haritz   10   14    6       0.0000000019   0.0000000007       0.0000000021
haritz   11   14    6       0.0000000008   0.0000000003       0.0000000008
haritz   12   14    6       0.0000000017  -0.0000000002       0.0000000017
haritz   13   14    6      -0.0000000008  -0.0000000002       0.0000000008
haritz   14   14    6      -0.1162067745  -0.0000013008       0.1162067745
haritz   15   14    6       0.0000000003   0.0000000001       0.0000000003
haritz    1   15    6      -0.0000000004  -0.0000000009       0.0000000010
haritz    2   15    6      -0.0000000000   0.0000000002       0.0000000002
haritz    3   15    6       0.0031059186   0.0009195586       0.0032391849
haritz    4   15    6      -0.0021320046  -0.0004421539       0.0021773708
haritz    5   15    6      -0.0000000000  -0.0000000003       0.0000000003
haritz    6   15    6      -0.0000000000   0.0000000002       0.0000000002
haritz    7   15    6       0.0056065050   0.0021027088       0.0059878446
haritz    8   15    6       0.0230087108   0.0172849906       0.0287779720
haritz    9   15    6      -0.0000000004  -0.0000000003       0.0000000006
haritz   10   15    6       0.0000000004   0.0000000000       0.0000000004
haritz   11   15    6       0.0000000004   0.0000000000       0.0000000004
haritz   12   15    6       0.0093819207  -0.0011689804       0.0094544673
haritz   13   15    6      -0.0373393861   0.0043470115       0.0375915717
haritz   14   15    6       0.0000000003  -0.0000000001       0.0000000003
haritz   15   15    6      -0.0422070927  -0.0000005061       0.0422070927
     electron-phonon interaction  ...

     Gaussian Broadening:   0.005 Ry, ngauss=   0
     DOS = 11.089098 states/spin/Ry/Unit Cell at Ef= -4.823974 eV
     lambda( 1)= -0.0001   gamma=    0.02 GHz
     lambda( 2)=  0.0132   gamma=    0.53 GHz
     lambda( 3)=  0.0132   gamma=    0.53 GHz
     lambda( 4)=  0.0034   gamma=    0.68 GHz
     lambda( 5)=  0.0034   gamma=    0.68 GHz
     lambda( 6)=  0.0069   gamma=   68.41 GHz
     Gaussian Broadening:   0.010 Ry, ngauss=   0
     DOS = 89.840792 states/spin/Ry/Unit Cell at Ef= -4.823816 eV
     lambda( 1)= -0.0006   gamma=    1.15 GHz
     lambda( 2)=  0.1064   gamma=   34.72 GHz
     lambda( 3)=  0.1064   gamma=   34.72 GHz
     lambda( 4)=  0.0276   gamma=   44.31 GHz
     lambda( 5)=  0.0276   gamma=   44.31 GHz
     lambda( 6)=  0.0551   gamma= 4446.24 GHz
     Gaussian Broadening:   0.015 Ry, ngauss=   0
     DOS =104.085294 states/spin/Ry/Unit Cell at Ef= -4.821344 eV
     lambda( 1)= -0.0006   gamma=    1.39 GHz
     lambda( 2)=  0.1202   gamma=   45.45 GHz
     lambda( 3)=  0.1202   gamma=   45.45 GHz
     lambda( 4)=  0.0306   gamma=   56.83 GHz
     lambda( 5)=  0.0306   gamma=   56.83 GHz
     lambda( 6)=  0.0598   gamma= 5588.94 GHz
     Gaussian Broadening:   0.020 Ry, ngauss=   0
     DOS = 97.516643 states/spin/Ry/Unit Cell at Ef= -4.815352 eV
     lambda( 1)= -0.0005   gamma=    1.09 GHz
     lambda( 2)=  0.1095   gamma=   38.80 GHz
     lambda( 3)=  0.1095   gamma=   38.80 GHz
     lambda( 4)=  0.0273   gamma=   47.43 GHz
     lambda( 5)=  0.0273   gamma=   47.43 GHz
     lambda( 6)=  0.0522   gamma= 4573.17 GHz
     Gaussian Broadening:   0.025 Ry, ngauss=   0
     DOS = 87.380816 states/spin/Ry/Unit Cell at Ef= -4.807068 eV
     lambda( 1)= -0.0004   gamma=    0.81 GHz
     lambda( 2)=  0.0961   gamma=   30.53 GHz
     lambda( 3)=  0.0961   gamma=   30.53 GHz
     lambda( 4)=  0.0236   gamma=   36.73 GHz
     lambda( 5)=  0.0236   gamma=   36.73 GHz
     lambda( 6)=  0.0445   gamma= 3496.70 GHz
     Gaussian Broadening:   0.030 Ry, ngauss=   0
     DOS = 77.715096 states/spin/Ry/Unit Cell at Ef= -4.797491 eV
     lambda( 1)= -0.0004   gamma=    0.61 GHz
     lambda( 2)=  0.0843   gamma=   23.81 GHz
     lambda( 3)=  0.0843   gamma=   23.81 GHz
     lambda( 4)=  0.0204   gamma=   28.34 GHz
     lambda( 5)=  0.0204   gamma=   28.34 GHz
     lambda( 6)=  0.0383   gamma= 2676.54 GHz
     Gaussian Broadening:   0.035 Ry, ngauss=   0
     DOS = 69.370562 states/spin/Ry/Unit Cell at Ef= -4.787156 eV
     lambda( 1)= -0.0003   gamma=    0.47 GHz
     lambda( 2)=  0.0745   gamma=   18.78 GHz
     lambda( 3)=  0.0745   gamma=   18.78 GHz
     lambda( 4)=  0.0179   gamma=   22.20 GHz
     lambda( 5)=  0.0179   gamma=   22.20 GHz
     lambda( 6)=  0.0334   gamma= 2084.30 GHz
     Gaussian Broadening:   0.040 Ry, ngauss=   0
     DOS = 62.353416 states/spin/Ry/Unit Cell at Ef= -4.776346 eV
     lambda( 1)= -0.0003   gamma=    0.38 GHz
     lambda( 2)=  0.0665   gamma=   15.06 GHz
     lambda( 3)=  0.0665   gamma=   15.06 GHz
     lambda( 4)=  0.0159   gamma=   17.71 GHz
     lambda( 5)=  0.0159   gamma=   17.71 GHz
     lambda( 6)=  0.0296   gamma= 1656.01 GHz
     Gaussian Broadening:   0.045 Ry, ngauss=   0
     DOS = 56.473258 states/spin/Ry/Unit Cell at Ef= -4.765227 eV
     lambda( 1)= -0.0002   gamma=    0.30 GHz
     lambda( 2)=  0.0599   gamma=   12.29 GHz
     lambda( 3)=  0.0599   gamma=   12.29 GHz
     lambda( 4)=  0.0143   gamma=   14.41 GHz
     lambda( 5)=  0.0143   gamma=   14.41 GHz
     lambda( 6)=  0.0264   gamma= 1341.21 GHz
     Gaussian Broadening:   0.050 Ry, ngauss=   0
     DOS = 51.527149 states/spin/Ry/Unit Cell at Ef= -4.753909 eV
     lambda( 1)= -0.0002   gamma=    0.25 GHz
     lambda( 2)=  0.0546   gamma=   10.21 GHz
     lambda( 3)=  0.0546   gamma=   10.21 GHz
     lambda( 4)=  0.0130   gamma=   11.98 GHz
     lambda( 5)=  0.0130   gamma=   11.98 GHz
     lambda( 6)=  0.0239   gamma= 1105.28 GHz
 
 
     Number of q in the star =    1
     List of q in the star:
          1   0.000000000   0.000000000   0.000000000
 
     PHONON       :    34.86s CPU        40.52s WALL

     INITIALIZATION: 
     phq_setup    :      1.32s CPU      1.47s WALL (       1 calls)
     phq_init     :      8.20s CPU      8.25s WALL (       1 calls)
 
     phq_init     :      8.20s CPU      8.25s WALL (       1 calls)
     init_vloc    :      0.02s CPU      0.02s WALL (       1 calls)
     init_us_1    :      0.02s CPU      0.03s WALL (       1 calls)
 
 
 
 
     dvqpsi_us    :     10.36s CPU     11.30s WALL (       6 calls)
 
     dvqpsi_us    :     10.36s CPU     11.30s WALL (       6 calls)
     dvqpsi_us_on :      0.39s CPU      0.39s WALL (       6 calls)
 
 
 
 
 
 
      General routines
     calbec       :      0.08s CPU      0.08s WALL (       4 calls)
     fft          :      0.91s CPU      1.15s WALL (      13 calls)
     ffts         :      0.42s CPU      0.51s WALL (       6 calls)
     fftw         :     15.75s CPU     17.01s WALL (     360 calls)
     davcio       :      0.01s CPU      0.18s WALL (       8 calls)
 
