
     Program PHONON v.6.7+ starts on  2Mar2022 at 18:34:26 

     This program is part of the open-source Quantum ESPRESSO suite
     for quantum simulation of materials; please cite
         "P. Giannozzi et al., J. Phys.:Condens. Matter 21 395502 (2009);
         "P. Giannozzi et al., J. Phys.:Condens. Matter 29 465901 (2017);
          URL http://www.quantum-espresso.org", 
     in publications or presentations arising from this work. More details at
     http://www.quantum-espresso.org/quote

     Parallel version (MPI), running on     1 processors

     MPI processes distributed on     1 nodes
     Waiting for input...
     Reading input from standard input

     Reading xml data from directory:

     ./cu.save/

     IMPORTANT: XC functional enforced from input :
     Exchange-correlation= PZ
                           (   1   1   0   0   0   0   0)
     Any further DFT definition will be discarded
     Please, verify this is what you really want

 
     G-vector sticks info
     --------------------
     sticks:   dense  smooth     PW     G-vecs:    dense   smooth      PW
     Sum         583     583    187                 9185     9185    1687
 
     Reading collected, re-writing distributed wavefunctions


     Dynamical matrices for ( 1, 1, 1)  uniform grid of q-points
     (   1 q-points):
       N         xq(1)         xq(2)         xq(3) 
       1   0.000000000   0.000000000   0.000000000

     Saving dvscf to file. Distribute only q points, not irreducible represetations.

     Calculation of q =    0.0000000   0.0000000   0.0000000

     phonons for Cu                                                             

     bravais-lattice index     =            2
     lattice parameter (alat)  =       7.2000  a.u.
     unit-cell volume          =      93.3120 (a.u.)^3
     number of atoms/cell      =            1
     number of atomic types    =            1
     kinetic-energy cut-off    =      80.0000  Ry
     charge density cut-off    =     320.0000  Ry
     convergence threshold     =      1.0E-12
     beta                      =       0.7000
     number of iterations used =            4
     Exchange-correlation= PZ
                           (   1   1   0   0   0   0   0)


     celldm(1)=    7.20000  celldm(2)=    0.00000  celldm(3)=    0.00000
     celldm(4)=    0.00000  celldm(5)=    0.00000  celldm(6)=    0.00000

     crystal axes: (cart. coord. in units of alat)
               a(1) = ( -0.5000  0.0000  0.5000 )  
               a(2) = (  0.0000  0.5000  0.5000 )  
               a(3) = ( -0.5000  0.5000  0.0000 )  

     reciprocal axes: (cart. coord. in units 2 pi/alat)
               b(1) = ( -1.0000 -1.0000  1.0000 )  
               b(2) = (  1.0000  1.0000  1.0000 )  
               b(3) = ( -1.0000  1.0000 -1.0000 )  


     Atoms inside the unit cell: 

     Cartesian axes

     site n.  atom      mass           positions (alat units)
        1     Cu  63.5460   tau(    1) = (    0.00000    0.00000    0.00000  )

     Computing dynamical matrix for 
                    q = (   0.0000000   0.0000000   0.0000000 )
 
     No symmetry!
                                    s                        frac. trans.

      isym =  1     identity                                     

 cryst.   s( 1) = (     1          0          0      )
                  (     0          1          0      )
                  (     0          0          1      )

 cart.    s( 1) = (  1.0000000  0.0000000  0.0000000 )
                  (  0.0000000  1.0000000  0.0000000 )
                  (  0.0000000  0.0000000  1.0000000 )


     G cutoff =  420.1992  (   9185 G-vectors)     FFT grid: ( 30, 30, 30)

     number of k points=    64  Gaussian smearing, width (Ry)=  0.0010
                       cart. coord. in units 2pi/alat
        k(    1) = (   0.0000000   0.0000000   0.0000000), wk =   0.0312500
        k(    2) = (  -0.2500000   0.2500000  -0.2500000), wk =   0.0312500
        k(    3) = (  -0.5000000   0.5000000  -0.5000000), wk =   0.0312500
        k(    4) = (  -0.7500000   0.7500000  -0.7500000), wk =   0.0312500
        k(    5) = (   0.2500000   0.2500000   0.2500000), wk =   0.0312500
        k(    6) = (   0.0000000   0.5000000   0.0000000), wk =   0.0312500
        k(    7) = (  -0.2500000   0.7500000  -0.2500000), wk =   0.0312500
        k(    8) = (  -0.5000000   1.0000000  -0.5000000), wk =   0.0312500
        k(    9) = (   0.5000000   0.5000000   0.5000000), wk =   0.0312500
        k(   10) = (   0.2500000   0.7500000   0.2500000), wk =   0.0312500
        k(   11) = (   0.0000000   1.0000000   0.0000000), wk =   0.0312500
        k(   12) = (  -0.2500000   1.2500000  -0.2500000), wk =   0.0312500
        k(   13) = (   0.7500000   0.7500000   0.7500000), wk =   0.0312500
        k(   14) = (   0.5000000   1.0000000   0.5000000), wk =   0.0312500
        k(   15) = (   0.2500000   1.2500000   0.2500000), wk =   0.0312500
        k(   16) = (   0.0000000   1.5000000   0.0000000), wk =   0.0312500
        k(   17) = (  -0.2500000  -0.2500000   0.2500000), wk =   0.0312500
        k(   18) = (  -0.5000000   0.0000000   0.0000000), wk =   0.0312500
        k(   19) = (  -0.7500000   0.2500000  -0.2500000), wk =   0.0312500
        k(   20) = (  -1.0000000   0.5000000  -0.5000000), wk =   0.0312500
        k(   21) = (   0.0000000   0.0000000   0.5000000), wk =   0.0312500
        k(   22) = (  -0.2500000   0.2500000   0.2500000), wk =   0.0312500
        k(   23) = (  -0.5000000   0.5000000   0.0000000), wk =   0.0312500
        k(   24) = (  -0.7500000   0.7500000  -0.2500000), wk =   0.0312500
        k(   25) = (   0.2500000   0.2500000   0.7500000), wk =   0.0312500
        k(   26) = (   0.0000000   0.5000000   0.5000000), wk =   0.0312500
        k(   27) = (  -0.2500000   0.7500000   0.2500000), wk =   0.0312500
        k(   28) = (  -0.5000000   1.0000000   0.0000000), wk =   0.0312500
        k(   29) = (   0.5000000   0.5000000   1.0000000), wk =   0.0312500
        k(   30) = (   0.2500000   0.7500000   0.7500000), wk =   0.0312500
        k(   31) = (   0.0000000   1.0000000   0.5000000), wk =   0.0312500
        k(   32) = (  -0.2500000   1.2500000   0.2500000), wk =   0.0312500
        k(   33) = (  -0.5000000  -0.5000000   0.5000000), wk =   0.0312500
        k(   34) = (  -0.7500000  -0.2500000   0.2500000), wk =   0.0312500
        k(   35) = (  -1.0000000   0.0000000   0.0000000), wk =   0.0312500
        k(   36) = (  -1.2500000   0.2500000  -0.2500000), wk =   0.0312500
        k(   37) = (  -0.2500000  -0.2500000   0.7500000), wk =   0.0312500
        k(   38) = (  -0.5000000   0.0000000   0.5000000), wk =   0.0312500
        k(   39) = (  -0.7500000   0.2500000   0.2500000), wk =   0.0312500
        k(   40) = (  -1.0000000   0.5000000   0.0000000), wk =   0.0312500
        k(   41) = (   0.0000000   0.0000000   1.0000000), wk =   0.0312500
        k(   42) = (  -0.2500000   0.2500000   0.7500000), wk =   0.0312500
        k(   43) = (  -0.5000000   0.5000000   0.5000000), wk =   0.0312500
        k(   44) = (  -0.7500000   0.7500000   0.2500000), wk =   0.0312500
        k(   45) = (   0.2500000   0.2500000   1.2500000), wk =   0.0312500
        k(   46) = (   0.0000000   0.5000000   1.0000000), wk =   0.0312500
        k(   47) = (  -0.2500000   0.7500000   0.7500000), wk =   0.0312500
        k(   48) = (  -0.5000000   1.0000000   0.5000000), wk =   0.0312500
        k(   49) = (  -0.7500000  -0.7500000   0.7500000), wk =   0.0312500
        k(   50) = (  -1.0000000  -0.5000000   0.5000000), wk =   0.0312500
        k(   51) = (  -1.2500000  -0.2500000   0.2500000), wk =   0.0312500
        k(   52) = (  -1.5000000   0.0000000   0.0000000), wk =   0.0312500
        k(   53) = (  -0.5000000  -0.5000000   1.0000000), wk =   0.0312500
        k(   54) = (  -0.7500000  -0.2500000   0.7500000), wk =   0.0312500
        k(   55) = (  -1.0000000   0.0000000   0.5000000), wk =   0.0312500
        k(   56) = (  -1.2500000   0.2500000   0.2500000), wk =   0.0312500
        k(   57) = (  -0.2500000  -0.2500000   1.2500000), wk =   0.0312500
        k(   58) = (  -0.5000000   0.0000000   1.0000000), wk =   0.0312500
        k(   59) = (  -0.7500000   0.2500000   0.7500000), wk =   0.0312500
        k(   60) = (  -1.0000000   0.5000000   0.5000000), wk =   0.0312500
        k(   61) = (   0.0000000   0.0000000   1.5000000), wk =   0.0312500
        k(   62) = (  -0.2500000   0.2500000   1.2500000), wk =   0.0312500
        k(   63) = (  -0.5000000   0.5000000   1.0000000), wk =   0.0312500
        k(   64) = (  -0.7500000   0.7500000   0.7500000), wk =   0.0312500

                       cryst. coord.
        k(    1) = (   0.0000000   0.0000000   0.0000000), wk =   0.0312500
        k(    2) = (   0.0000000   0.0000000   0.2500000), wk =   0.0312500
        k(    3) = (   0.0000000   0.0000000   0.5000000), wk =   0.0312500
        k(    4) = (   0.0000000   0.0000000   0.7500000), wk =   0.0312500
        k(    5) = (   0.0000000   0.2500000   0.0000000), wk =   0.0312500
        k(    6) = (   0.0000000   0.2500000   0.2500000), wk =   0.0312500
        k(    7) = (   0.0000000   0.2500000   0.5000000), wk =   0.0312500
        k(    8) = (   0.0000000   0.2500000   0.7500000), wk =   0.0312500
        k(    9) = (   0.0000000   0.5000000   0.0000000), wk =   0.0312500
        k(   10) = (   0.0000000   0.5000000   0.2500000), wk =   0.0312500
        k(   11) = (   0.0000000   0.5000000   0.5000000), wk =   0.0312500
        k(   12) = (   0.0000000   0.5000000   0.7500000), wk =   0.0312500
        k(   13) = (   0.0000000   0.7500000   0.0000000), wk =   0.0312500
        k(   14) = (   0.0000000   0.7500000   0.2500000), wk =   0.0312500
        k(   15) = (   0.0000000   0.7500000   0.5000000), wk =   0.0312500
        k(   16) = (   0.0000000   0.7500000   0.7500000), wk =   0.0312500
        k(   17) = (   0.2500000   0.0000000   0.0000000), wk =   0.0312500
        k(   18) = (   0.2500000   0.0000000   0.2500000), wk =   0.0312500
        k(   19) = (   0.2500000   0.0000000   0.5000000), wk =   0.0312500
        k(   20) = (   0.2500000   0.0000000   0.7500000), wk =   0.0312500
        k(   21) = (   0.2500000   0.2500000   0.0000000), wk =   0.0312500
        k(   22) = (   0.2500000   0.2500000   0.2500000), wk =   0.0312500
        k(   23) = (   0.2500000   0.2500000   0.5000000), wk =   0.0312500
        k(   24) = (   0.2500000   0.2500000   0.7500000), wk =   0.0312500
        k(   25) = (   0.2500000   0.5000000   0.0000000), wk =   0.0312500
        k(   26) = (   0.2500000   0.5000000   0.2500000), wk =   0.0312500
        k(   27) = (   0.2500000   0.5000000   0.5000000), wk =   0.0312500
        k(   28) = (   0.2500000   0.5000000   0.7500000), wk =   0.0312500
        k(   29) = (   0.2500000   0.7500000   0.0000000), wk =   0.0312500
        k(   30) = (   0.2500000   0.7500000   0.2500000), wk =   0.0312500
        k(   31) = (   0.2500000   0.7500000   0.5000000), wk =   0.0312500
        k(   32) = (   0.2500000   0.7500000   0.7500000), wk =   0.0312500
        k(   33) = (   0.5000000   0.0000000   0.0000000), wk =   0.0312500
        k(   34) = (   0.5000000   0.0000000   0.2500000), wk =   0.0312500
        k(   35) = (   0.5000000   0.0000000   0.5000000), wk =   0.0312500
        k(   36) = (   0.5000000   0.0000000   0.7500000), wk =   0.0312500
        k(   37) = (   0.5000000   0.2500000   0.0000000), wk =   0.0312500
        k(   38) = (   0.5000000   0.2500000   0.2500000), wk =   0.0312500
        k(   39) = (   0.5000000   0.2500000   0.5000000), wk =   0.0312500
        k(   40) = (   0.5000000   0.2500000   0.7500000), wk =   0.0312500
        k(   41) = (   0.5000000   0.5000000   0.0000000), wk =   0.0312500
        k(   42) = (   0.5000000   0.5000000   0.2500000), wk =   0.0312500
        k(   43) = (   0.5000000   0.5000000   0.5000000), wk =   0.0312500
        k(   44) = (   0.5000000   0.5000000   0.7500000), wk =   0.0312500
        k(   45) = (   0.5000000   0.7500000   0.0000000), wk =   0.0312500
        k(   46) = (   0.5000000   0.7500000   0.2500000), wk =   0.0312500
        k(   47) = (   0.5000000   0.7500000   0.5000000), wk =   0.0312500
        k(   48) = (   0.5000000   0.7500000   0.7500000), wk =   0.0312500
        k(   49) = (   0.7500000   0.0000000   0.0000000), wk =   0.0312500
        k(   50) = (   0.7500000   0.0000000   0.2500000), wk =   0.0312500
        k(   51) = (   0.7500000   0.0000000   0.5000000), wk =   0.0312500
        k(   52) = (   0.7500000   0.0000000   0.7500000), wk =   0.0312500
        k(   53) = (   0.7500000   0.2500000   0.0000000), wk =   0.0312500
        k(   54) = (   0.7500000   0.2500000   0.2500000), wk =   0.0312500
        k(   55) = (   0.7500000   0.2500000   0.5000000), wk =   0.0312500
        k(   56) = (   0.7500000   0.2500000   0.7500000), wk =   0.0312500
        k(   57) = (   0.7500000   0.5000000   0.0000000), wk =   0.0312500
        k(   58) = (   0.7500000   0.5000000   0.2500000), wk =   0.0312500
        k(   59) = (   0.7500000   0.5000000   0.5000000), wk =   0.0312500
        k(   60) = (   0.7500000   0.5000000   0.7500000), wk =   0.0312500
        k(   61) = (   0.7500000   0.7500000   0.0000000), wk =   0.0312500
        k(   62) = (   0.7500000   0.7500000   0.2500000), wk =   0.0312500
        k(   63) = (   0.7500000   0.7500000   0.5000000), wk =   0.0312500
        k(   64) = (   0.7500000   0.7500000   0.7500000), wk =   0.0312500

     PseudoPot. # 1 for Cu read from file:
     ./Cu.RRKJ3.UPF
     MD5 check sum: 9c5b3784b027f6db5e573a1d792c29e3
     Pseudo is Norm-conserving, Zval = 11.0
     Generated by new atomic code, or converted to UPF format
     Using radial grid of 1199 points,  2 beta functions with: 
                l(1) =   2
                l(2) =   1

     point group C_1 (1)    
     there are  1 classes
     the character table:

       E    
A      1.00

     the symmetry operations in each class and the name of the first element:

     E        1
                                                                 


     Atomic displacements:
     There are    3 irreducible representations

     Representation     1      1 modes -  To be done
     Irreps are as follows:

                     mode #   1
                     (   1.00000   0.00000   ) 
                     (   0.00000   0.00000   ) 
                     (   0.00000   0.00000   ) 

     Representation     2      1 modes -  To be done
     Irreps are as follows:

                     mode #   2
                     (   0.00000   0.00000   ) 
                     (   1.00000   0.00000   ) 
                     (   0.00000   0.00000   ) 

     Representation     3      1 modes -  To be done
     Irreps are as follows:

                     mode #   3
                     (   0.00000   0.00000   ) 
                     (   0.00000   0.00000   ) 
                     (   1.00000   0.00000   ) 



     Alpha used in Ewald sum =   2.8000
     PHONON       :      0.20s CPU      0.23s WALL



     Representation #   1 mode #   1

     Self-consistent Calculation
 
     Pert. #  1: Fermi energy shift (Ry) =    -3.5482E-09     1.0559E-09

      iter #   1 total cpu time :     2.6 secs   av.it.:  14.4
      thresh= 1.000E-02 alpha_mix =  0.700 |ddv_scf|^2 =  1.030E-04
 
     Pert. #  1: Fermi energy shift (Ry) =    -4.7921E-09     7.7562E-09

      iter #   2 total cpu time :     5.4 secs   av.it.:  18.9
      thresh= 1.015E-03 alpha_mix =  0.700 |ddv_scf|^2 =  6.537E-06
 
     Pert. #  1: Fermi energy shift (Ry) =     4.3221E-07     1.3430E-07

      iter #   3 total cpu time :     8.1 secs   av.it.:  18.4
      thresh= 2.557E-04 alpha_mix =  0.700 |ddv_scf|^2 =  3.327E-09
 
     Pert. #  1: Fermi energy shift (Ry) =    -1.2125E-06    -3.7599E-07

      iter #   4 total cpu time :    10.7 secs   av.it.:  17.2
      thresh= 5.768E-06 alpha_mix =  0.700 |ddv_scf|^2 =  7.161E-12
 
     Pert. #  1: Fermi energy shift (Ry) =     2.2310E-06     7.1793E-07

      iter #   5 total cpu time :    13.3 secs   av.it.:  17.8
      thresh= 2.676E-07 alpha_mix =  0.700 |ddv_scf|^2 =  2.533E-13
haritz    1    1    1    1      -0.0000021542  -0.0000006931       0.0000022630
haritz    1    2    1    1       0.0000002467  -0.0000005419       0.0000005954
haritz    1    3    1    1       0.0000000092  -0.0000000211       0.0000000230
haritz    1    4    1    1       0.0000000572  -0.0000000674       0.0000000884
haritz    1    5    1    1       0.0000000080  -0.0000000075       0.0000000110
haritz    1    6    1    1      -0.0000000209   0.0000000166       0.0000000267
haritz    1    7    1    1      -0.0000017769   0.0000009113       0.0000019970
haritz    1    8    1    1       0.0135818054   0.0240030990       0.0275792349
haritz    1    9    1    1      -0.0445437109   0.0273111038       0.0522497710
haritz    1   10    1    1       0.0636021196  -0.0616691709       0.0885907233
haritz    1    1    2    1       0.0000002399   0.0000005449       0.0000005954
haritz    1    2    2    1       0.0000023562   0.0000007707       0.0000024791
haritz    1    3    2    1       0.0000001598   0.0000000156       0.0000001606
haritz    1    4    2    1       0.0000000046  -0.0000000003       0.0000000046
haritz    1    5    2    1      -0.0000003595  -0.0000001823       0.0000004031
haritz    1    6    2    1       0.0000006968   0.0000004543       0.0000008318
haritz    1    7    2    1       0.3449524350  -0.7423509328       0.8185823660
haritz    1    8    2    1      -0.0484118469  -0.0481080728       0.0682502278
haritz    1    9    2    1      -0.0903070260  -0.0103585609       0.0908991679
haritz    1   10    2    1      -0.0426218630  -0.0127033549       0.0444746942
haritz    1    1    3    1       0.0000000086   0.0000000214       0.0000000231
haritz    1    2    3    1       0.0000001606  -0.0000000100       0.0000001610
haritz    1    3    3    1       0.0000022444   0.0000007613       0.0000023700
haritz    1    4    3    1      -0.0000008735  -0.0000000848       0.0000008776
haritz    1    5    3    1      -0.0000000775   0.0000000063       0.0000000777
haritz    1    6    3    1       0.0000001319   0.0000000101       0.0000001323
haritz    1    7    3    1       0.0024090064  -0.0081777558       0.0085251980
haritz    1    8    3    1      -0.5697202999   0.0514386165       0.5720377185
haritz    1    9    3    1       0.3431899056  -0.1449103017       0.3725296053
haritz    1   10    3    1       0.1186501525  -0.2951051837       0.3180643459
haritz    1    1    4    1       0.0000000579   0.0000000670       0.0000000885
haritz    1    2    4    1       0.0000000048   0.0000000018       0.0000000051
haritz    1    3    4    1      -0.0000008734   0.0000000764       0.0000008767
haritz    1    4    4    1       0.0000024164   0.0000007633       0.0000025341
haritz    1    5    4    1      -0.0000000620  -0.0000000225       0.0000000659
haritz    1    6    4    1       0.0000001498   0.0000000627       0.0000001624
haritz    1    7    4    1       0.0398380436  -0.1281354186       0.1341855254
haritz    1    8    4    1       0.3681019794   0.2487200145       0.4442529829
haritz    1    9    4    1       0.5325485978  -0.0017954629       0.5325516245
haritz    1   10    4    1       0.2602720854   0.0608733670       0.2672959506
haritz    1    1    5    1       0.0000000093   0.0000000060       0.0000000110
haritz    1    2    5    1      -0.0000003614   0.0000001784       0.0000004030
haritz    1    3    5    1      -0.0000000778  -0.0000000072       0.0000000781
haritz    1    4    5    1      -0.0000000636   0.0000000175       0.0000000660
haritz    1    5    5    1       0.0000026146   0.0000008535       0.0000027503
haritz    1    6    5    1       0.0000000183   0.0000000099       0.0000000208
haritz    1    7    5    1      -0.0000192140  -0.0000002442       0.0000192156
haritz    1    8    5    1       0.0026871430  -0.0142197003       0.0144713722
haritz    1    9    5    1       0.0271124204   0.0041138141       0.0274227425
haritz    1   10    5    1      -0.0463463111   0.0031962089       0.0464563914
haritz    1    1    6    1      -0.0000000239  -0.0000000120       0.0000000268
haritz    1    2    6    1       0.0000007026  -0.0000004452       0.0000008318
haritz    1    3    6    1       0.0000001316  -0.0000000108       0.0000001320
haritz    1    4    6    1       0.0000001507  -0.0000000606       0.0000001625
haritz    1    5    6    1       0.0000000194  -0.0000000007       0.0000000194
haritz    1    6    6    1       0.0000025957   0.0000008473       0.0000027305
haritz    1    7    6    1       0.0000404568  -0.0000052737       0.0000407991
haritz    1    8    6    1      -0.0018938335   0.0308264846       0.0308846039
haritz    1    9    6    1      -0.0585058672  -0.0014726053       0.0585243972
haritz    1   10    6    1       0.0972803819  -0.0191390472       0.0991452260
haritz    1    1    7    1      -0.0000017769  -0.0000009113       0.0000019970
haritz    1    2    7    1       0.3449524345   0.7423509331       0.8185823660
haritz    1    3    7    1       0.0024090065   0.0081777557       0.0085251980
haritz    1    4    7    1       0.0398380436   0.1281354187       0.1341855254
haritz    1    5    7    1      -0.0000192140   0.0000002442       0.0000192156
haritz    1    6    7    1       0.0000404568   0.0000052737       0.0000407991
haritz    1    7    7    1      -0.0000016743  -0.0000008194       0.0000018640
haritz    1    8    7    1       0.0000010336   0.0000015422       0.0000018565
haritz    1    9    7    1      -0.0000027700   0.0000013252       0.0000030706
haritz    1   10    7    1       0.0000038975  -0.0000042627       0.0000057759
haritz    1    1    8    1       0.0135818048  -0.0240030994       0.0275792349
haritz    1    2    8    1      -0.0484118468   0.0481080728       0.0682502277
haritz    1    3    8    1      -0.5697203000  -0.0514386151       0.5720377185
haritz    1    4    8    1       0.3681019788  -0.2487200153       0.4442529829
haritz    1    5    8    1       0.0026871427   0.0142197003       0.0144713721
haritz    1    6    8    1      -0.0018938328  -0.0308264847       0.0308846040
haritz    1    7    8    1       0.0000010338  -0.0000015419       0.0000018564
haritz    1    8    8    1      -0.0000026771  -0.0000005993       0.0000027433
haritz    1    9    8    1       0.0000003105   0.0000005141       0.0000006005
haritz    1   10    8    1      -0.0000018246  -0.0000003581       0.0000018594
haritz    1    1    9    1      -0.0445437115  -0.0273111027       0.0522497710
haritz    1    2    9    1      -0.0903070260   0.0103585612       0.0908991680
haritz    1    3    9    1       0.3431899060   0.1449103010       0.3725296054
haritz    1    4    9    1       0.5325485979   0.0017954618       0.5325516245
haritz    1    5    9    1       0.0271124205  -0.0041138135       0.0274227425
haritz    1    6    9    1      -0.0585058672   0.0014726038       0.0585243972
haritz    1    7    9    1      -0.0000027695  -0.0000013253       0.0000030703
haritz    1    8    9    1       0.0000003093  -0.0000005125       0.0000005986
haritz    1    9    9    1      -0.0000006779  -0.0000006012       0.0000009061
haritz    1   10    9    1      -0.0000034859   0.0000056928       0.0000066753
haritz    1    1   10    1       0.0636021212   0.0616691693       0.0885907233
haritz    1    2   10    1      -0.0426218630   0.0127033550       0.0444746943
haritz    1    3   10    1       0.1186501531   0.2951051833       0.3180643458
haritz    1    4   10    1       0.2602720852  -0.0608733676       0.2672959506
haritz    1    5   10    1      -0.0463463110  -0.0031962100       0.0464563914
haritz    1    6   10    1       0.0972803815   0.0191390495       0.0991452260
haritz    1    7   10    1       0.0000038968   0.0000042626       0.0000057753
haritz    1    8   10    1      -0.0000018214   0.0000003592       0.0000018565
haritz    1    9   10    1      -0.0000034866  -0.0000056886       0.0000066721
haritz    1   10   10    1       0.0000093756  -0.0000006040       0.0000093950
haritz    2    1    1    1      -0.0000021156  -0.0000006540       0.0000022144
haritz    2    2    1    1      -0.0109633485  -0.0023102617       0.0112041206
haritz    2    3    1    1       0.0005136335  -0.0000736619       0.0005188887
haritz    2    4    1    1       0.0000018513  -0.0001441538       0.0001441657
haritz    2    5    1    1      -0.0011725144   0.0005281753       0.0012859857
haritz    2    6    1    1       0.0016213616   0.0013849759       0.0021323629
haritz    2    7    1    1       0.0033909993   0.0092467601       0.0098489314
haritz    2    8    1    1      -0.1223706498   0.0058208594       0.1225090133
haritz    2    9    1    1       0.0632543767  -0.0674233944       0.0924501502
haritz    2   10    1    1       0.0029702307   0.0064905725       0.0071379130
haritz    2    1    2    1      -0.0109629019   0.0023101678       0.0112036643
haritz    2    2    2    1       0.0000025303   0.0000006253       0.0000026064
haritz    2    3    2    1      -0.0001600435  -0.0004387825       0.0004670589
haritz    2    4    2    1      -0.0001273059   0.0000250566       0.0001297483
haritz    2    5    2    1       0.0003960127   0.0005416919       0.0006710113
haritz    2    6    2    1       0.0005323498  -0.0009769932       0.0011126150
haritz    2    7    2    1       0.2226551985  -0.1393601238       0.2626720037
haritz    2    8    2    1       0.0755928436   0.2896754873       0.2993762948
haritz    2    9    2    1      -0.1931003914  -0.1172703353       0.2259205451
haritz    2   10    2    1      -0.0069176072   0.0050634757       0.0085727519
haritz    2    1    3    1       0.0005136360   0.0000736621       0.0005188912
haritz    2    2    3    1      -0.0001600440   0.0004387839       0.0004670604
haritz    2    3    3    1       0.0000018689   0.0000007740       0.0000020229
haritz    2    4    3    1       0.0000000385  -0.0000000759       0.0000000851
haritz    2    5    3    1       0.0001672837   0.0005755396       0.0005993578
haritz    2    6    3    1       0.0009533075  -0.0008349793       0.0012672748
haritz    2    7    3    1       0.0118245194  -0.0024982586       0.0120855515
haritz    2    8    3    1      -0.0188505055   0.3246683509       0.3252151282
haritz    2    9    3    1      -0.0607146976  -0.1020964838       0.1187853800
haritz    2   10    3    1       0.6442535238  -0.1889475720       0.6713894457
haritz    2    1    4    1       0.0000018513   0.0001441560       0.0001441679
haritz    2    2    4    1      -0.0001273089  -0.0000250572       0.0001297514
haritz    2    3    4    1       0.0000000381   0.0000000760       0.0000000850
haritz    2    4    4    1       0.0000019048   0.0000007733       0.0000020558
haritz    2    5    4    1      -0.0005790997   0.0002610155       0.0006352051
haritz    2    6    4    1       0.0000561965   0.0000411866       0.0000696734
haritz    2    7    4    1       0.0011934152   0.0031388614       0.0033580784
haritz    2    8    4    1       0.1446294027  -0.0528844923       0.1539949144
haritz    2    9    4    1       0.1917643977  -0.2960347419       0.3527182340
haritz    2   10    4    1       0.0795367876   0.1687851609       0.1865865245
haritz    2    1    5    1      -0.0011725174  -0.0005281769       0.0012859891
haritz    2    2    5    1       0.0003960097  -0.0005416880       0.0006710064
haritz    2    3    5    1       0.0001672865  -0.0005755497       0.0005993682
haritz    2    4    5    1      -0.0005790931  -0.0002610126       0.0006351979
haritz    2    5    5    1       0.0000026778   0.0000008498       0.0000028094
haritz    2    6    5    1      -0.0000002285  -0.0000004337       0.0000004902
haritz    2    7    5    1      -0.0013029709  -0.0000936367       0.0013063311
haritz    2    8    5    1      -0.0034266279   0.0210995239       0.0213759605
haritz    2    9    5    1       0.0161663126   0.0231579611       0.0282425357
haritz    2   10    5    1       0.0022233132  -0.0000225897       0.0022234279
haritz    2    1    6    1       0.0016213660  -0.0013849792       0.0021323684
haritz    2    2    6    1       0.0005323463   0.0009769863       0.0011126072
haritz    2    3    6    1       0.0009533169   0.0008349875       0.0012672874
haritz    2    4    6    1       0.0000562032  -0.0000411923       0.0000696822
haritz    2    5    6    1      -0.0000002291   0.0000004334       0.0000004902
haritz    2    6    6    1       0.0000032577   0.0000008529       0.0000033675
haritz    2    7    6    1       0.0010618552  -0.0018877819       0.0021659309
haritz    2    8    6    1       0.0105670234   0.0072294006       0.0128033673
haritz    2    9    6    1       0.0168574418  -0.0028602746       0.0170983776
haritz    2   10    6    1      -0.0015753572   0.0034051231       0.0037518814
haritz    2    1    7    1       0.0033910223  -0.0092468199       0.0098489954
haritz    2    2    7    1       0.2226561289   0.1393607050       0.2626731007
haritz    2    3    7    1       0.0118245190   0.0024982586       0.0120855511
haritz    2    4    7    1       0.0011934152  -0.0031388615       0.0033580785
haritz    2    5    7    1      -0.0013029670   0.0000936371       0.0013063272
haritz    2    6    7    1       0.0010618531   0.0018877760       0.0021659248
haritz    2    7    7    1      -0.0000011270  -0.0000004537       0.0000012149
haritz    2    8    7    1       0.0177651174   0.0055731862       0.0186188023
haritz    2    9    7    1      -0.0125533336   0.0063103137       0.0140501332
haritz    2   10    7    1       0.0005808409   0.0077091845       0.0077310350
haritz    2    1    8    1      -0.1223706534  -0.0058208579       0.1225090169
haritz    2    2    8    1       0.0755928425  -0.2896754852       0.2993762926
haritz    2    3    8    1      -0.0188504483  -0.3246679552       0.3252147299
haritz    2    4    8    1       0.1446299077   0.0528845959       0.1539954242
haritz    2    5    8    1      -0.0034266808  -0.0210997203       0.0213761629
haritz    2    6    8    1       0.0105669760  -0.0072293278       0.0128032872
haritz    2    7    8    1       0.0177651223  -0.0055731871       0.0186188073
haritz    2    8    8    1      -0.0000002791  -0.0000005229       0.0000005927
haritz    2    9    8    1       0.0000002107   0.0000023170       0.0000023266
haritz    2   10    8    1      -0.0299025365   0.0119659775       0.0322078609
haritz    2    1    9    1       0.0632543794   0.0674233958       0.0924501532
haritz    2    2    9    1      -0.1931003904   0.1172703348       0.2259205440
haritz    2    3    9    1      -0.0607143539   0.1020960984       0.1187848731
haritz    2    4    9    1       0.1917645869   0.2960350920       0.3527186307
haritz    2    5    9    1       0.0161663715  -0.0231580204       0.0282426181
haritz    2    6    9    1       0.0168576459   0.0028602832       0.0170985803
haritz    2    7    9    1      -0.0125533371  -0.0063103158       0.0140501373
haritz    2    8    9    1       0.0000002123  -0.0000023185       0.0000023282
haritz    2    9    9    1      -0.0000009548  -0.0000005229       0.0000010886
haritz    2   10    9    1       0.0224961051   0.0092297577       0.0243159037
haritz    2    1   10    1       0.0029701364  -0.0064903651       0.0071376852
haritz    2    2   10    1      -0.0069179735  -0.0050637464       0.0085732074
haritz    2    3   10    1       0.6442535227   0.1889475722       0.6713894448
haritz    2    4   10    1       0.0795367873  -0.1687851598       0.1865865234
haritz    2    5   10    1       0.0022233144   0.0000225898       0.0022234292
haritz    2    6   10    1      -0.0015753580  -0.0034051250       0.0037518834
haritz    2    7   10    1       0.0005808520  -0.0077093281       0.0077311790
haritz    2    8   10    1      -0.0299025356  -0.0119659770       0.0322078599
haritz    2    9   10    1       0.0224961044  -0.0092297575       0.0243159030
haritz    2   10   10    1       0.0000064143  -0.0000007820       0.0000064618
haritz    3    1    1    1       0.0000008564   0.0000002595       0.0000008948
haritz    3    2    1    1       0.0000002346  -0.0000001593       0.0000002836
haritz    3    3    1    1      -0.0000006209  -0.0000002162       0.0000006574
haritz    3    4    1    1      -0.0000000786   0.0000000600       0.0000000989
haritz    3    5    1    1      -0.0000000478  -0.0000000628       0.0000000789
haritz    3    6    1    1       0.0735905653  -0.0232046613       0.0771623458
haritz    3    7    1    1       0.0000022887  -0.0000018563       0.0000029469
haritz    3    8    1    1       0.0894565020   0.3357067989       0.3474212438
haritz    3    9    1    1       0.1849237725   0.1894975277       0.2647755930
haritz    3   10    1    1      -0.1205202119   0.0062938077       0.1206844376
haritz    3    1    2    1       0.0000002326   0.0000001629       0.0000002840
haritz    3    2    2    1       0.0000020568   0.0000007584       0.0000021922
haritz    3    3    2    1       0.0000001570   0.0000000633       0.0000001693
haritz    3    4    2    1       0.0000002293   0.0000000376       0.0000002324
haritz    3    5    2    1       0.0000000000  -0.0000002231       0.0000002231
haritz    3    6    2    1      -0.0006036694  -0.0001289764       0.0006172939
haritz    3    7    2    1       0.0000000236  -0.0000000089       0.0000000253
haritz    3    8    2    1       0.0031970656  -0.0124469989       0.0128510315
haritz    3    9    2    1       0.0875831656   0.3326521422       0.3439887478
haritz    3   10    2    1      -0.2434903967  -0.1217806837       0.2722464109
haritz    3    1    3    1      -0.0000006219   0.0000002134       0.0000006574
haritz    3    2    3    1       0.0000001607  -0.0000000600       0.0000001716
haritz    3    3    3    1       0.0000016056   0.0000007534       0.0000017736
haritz    3    4    3    1       0.0000000565  -0.0000001090       0.0000001228
haritz    3    5    3    1      -0.0000001038  -0.0000000772       0.0000001294
haritz    3    6    3    1       0.0012034238  -0.0008956624       0.0015001466
haritz    3    7    3    1      -0.0000000278   0.0000000354       0.0000000450
haritz    3    8    3    1      -0.2540968928  -0.3755641478       0.4534464246
haritz    3    9    3    1      -0.1789108375  -0.0893990292       0.2000031854
haritz    3   10    3    1       0.6128022013  -0.2494182607       0.6616162080
haritz    3    1    4    1      -0.0000000789  -0.0000000596       0.0000000989
haritz    3    2    4    1       0.0000002292  -0.0000000357       0.0000002319
haritz    3    3    4    1       0.0000000476   0.0000001155       0.0000001249
haritz    3    4    4    1       0.0000030366   0.0000009029       0.0000031680
haritz    3    5    4    1      -0.0000000372   0.0000007196       0.0000007206
haritz    3    6    4    1       0.0000560571   0.0000173315       0.0000586752
haritz    3    7    4    1       0.0000002564  -0.0000000637       0.0000002642
haritz    3    8    4    1       0.0148119623  -0.0412828031       0.0438595948
haritz    3    9    4    1       0.0099917037   0.0588218574       0.0596644371
haritz    3   10    4    1      -0.0053047968  -0.0032750703       0.0062343367
haritz    3    1    5    1      -0.0000000465   0.0000000637       0.0000000788
haritz    3    2    5    1      -0.0000000093   0.0000002228       0.0000002230
haritz    3    3    5    1      -0.0000001004   0.0000000815       0.0000001293
haritz    3    4    5    1      -0.0000000268  -0.0000007201       0.0000007206
haritz    3    5    5    1       0.0000029731   0.0000009051       0.0000031078
haritz    3    6    5    1       0.0000139792  -0.0000546077       0.0000563686
haritz    3    7    5    1      -0.0000001201  -0.0000002318       0.0000002610
haritz    3    8    5    1       0.0456319427   0.0138838491       0.0476973318
haritz    3    9    5    1      -0.0591262388   0.0130610176       0.0605516498
haritz    3   10    5    1      -0.0028923727   0.0052462843       0.0059907695
haritz    3    1    6    1       0.0735905654   0.0232046611       0.0771623458
haritz    3    2    6    1      -0.0006036694   0.0001289766       0.0006172939
haritz    3    3    6    1       0.0012034241   0.0008956620       0.0015001466
haritz    3    4    6    1       0.0000560574  -0.0000173307       0.0000586752
haritz    3    5    6    1       0.0000139785   0.0000546079       0.0000563686
haritz    3    6    6    1      -0.0000020492  -0.0000007440       0.0000021801
haritz    3    7    6    1       0.0701761833  -0.0513107257       0.0869338097
haritz    3    8    6    1      -0.0000000065   0.0000003590       0.0000003590
haritz    3    9    6    1       0.0000001149   0.0000002386       0.0000002648
haritz    3   10    6    1       0.0000003115   0.0000001233       0.0000003350
haritz    3    1    7    1       0.0000010886   0.0000027387       0.0000029471
haritz    3    2    7    1       0.0000000229   0.0000000106       0.0000000252
haritz    3    3    7    1      -0.0000000250  -0.0000000363       0.0000000440
haritz    3    4    7    1       0.0000002533   0.0000000726       0.0000002635
haritz    3    5    7    1      -0.0000001284   0.0000002284       0.0000002621
haritz    3    6    7    1       0.0701761842   0.0513107245       0.0869338097
haritz    3    7    7    1       0.0000004260   0.0000000049       0.0000004261
haritz    3    8    7    1      -0.0680389332   0.0847647164       0.1086938525
haritz    3    9    7    1      -0.0134927228   0.0817312315       0.0828374781
haritz    3   10    7    1      -0.0163878454  -0.0200110251       0.0258650846
haritz    3    1    8    1       0.0894565006  -0.3357067993       0.3474212438
haritz    3    2    8    1       0.0031970659   0.0124469988       0.0128510315
haritz    3    3    8    1      -0.2540968913   0.3755641488       0.4534464246
haritz    3    4    8    1       0.0148119609   0.0412828036       0.0438595948
haritz    3    5    8    1       0.0456319428  -0.0138838488       0.0476973318
haritz    3    6    8    1       0.0000000015  -0.0000003593       0.0000003593
haritz    3    7    8    1      -0.0680389323  -0.0847647171       0.1086938525
haritz    3    8    8    1      -0.0000016357  -0.0000005653       0.0000017306
haritz    3    9    8    1       0.0000003114  -0.0000002152       0.0000003785
haritz    3   10    8    1       0.0000003825  -0.0000007696       0.0000008595
haritz    3    1    9    1       0.1849237719  -0.1894975283       0.2647755930
haritz    3    2    9    1       0.0875831643  -0.3326521425       0.3439887478
haritz    3    3    9    1      -0.1789108371   0.0893990300       0.2000031854
haritz    3    4    9    1       0.0099917043  -0.0588218573       0.0596644371
haritz    3    5    9    1      -0.0591262385  -0.0130610189       0.0605516498
haritz    3    6    9    1       0.0000001204  -0.0000002358       0.0000002647
haritz    3    7    9    1      -0.0134927221  -0.0817312316       0.0828374781
haritz    3    8    9    1       0.0000003090   0.0000002195       0.0000003790
haritz    3    9    9    1      -0.0000018095  -0.0000005660       0.0000018960
haritz    3   10    9    1       0.0000005710  -0.0000003512       0.0000006703
haritz    3    1   10    1      -0.1205202119  -0.0062938082       0.1206844376
haritz    3    2   10    1      -0.2434903969   0.1217806835       0.2722464109
haritz    3    3   10    1       0.6128022012   0.2494182611       0.6616162080
haritz    3    4   10    1      -0.0053047967   0.0032750705       0.0062343367
haritz    3    5   10    1      -0.0028923729  -0.0052462842       0.0059907695
haritz    3    6   10    1       0.0000003435   0.0000000004       0.0000003435
haritz    3    7   10    1      -0.0163878455   0.0200110250       0.0258650846
haritz    3    8   10    1       0.0000003796   0.0000007703       0.0000008587
haritz    3    9   10    1       0.0000005695   0.0000003525       0.0000006698
haritz    3   10   10    1      -0.0000030682  -0.0000008528       0.0000031845
haritz    4    1    1    1      -0.0000021150  -0.0000006540       0.0000022138
haritz    4    2    1    1      -0.0105487386  -0.0037745048       0.0112036945
haritz    4    3    1    1      -0.0004965069   0.0001505298       0.0005188240
haritz    4    4    1    1       0.0000428355  -0.0001376566       0.0001441673
haritz    4    5    1    1       0.0008644980  -0.0009520821       0.0012860082
haritz    4    6    1    1      -0.0021249646  -0.0001775496       0.0021323692
haritz    4    7    1    1      -0.0026072232  -0.0094976197       0.0098489793
haritz    4    8    1    1       0.1172824166   0.0466791286       0.1262303699
haritz    4    9    1    1       0.0761254969  -0.0427358291       0.0873008726
haritz    4   10    1    1       0.0031395761  -0.0064220428       0.0071483964
haritz    4    1    2    1      -0.0105491681   0.0037746587       0.0112041508
haritz    4    2    2    1       0.0000024806   0.0000006253       0.0000025582
haritz    4    3    2    1      -0.0002782503  -0.0003751406       0.0004670692
haritz    4    4    2    1       0.0001296737  -0.0000054728       0.0001297891
haritz    4    5    2    1       0.0006196347   0.0002575258       0.0006710191
haritz    4    6    2    1      -0.0002859461  -0.0010752623       0.0011126339
haritz    4    7    2    1       0.2150779143  -0.1507935638       0.2626731964
haritz    4    8    2    1      -0.0108559954   0.3082793655       0.3084704521
haritz    4    9    2    1       0.1609963257   0.1399758932       0.2133379187
haritz    4   10    2    1      -0.0084542891  -0.0009513123       0.0085076436
haritz    4    1    3    1      -0.0004965045  -0.0001505290       0.0005188215
haritz    4    2    3    1      -0.0002782494   0.0003751393       0.0004670677
haritz    4    3    3    1       0.0000018528   0.0000007740       0.0000020080
haritz    4    4    3    1       0.0000000029  -0.0000000021       0.0000000036
haritz    4    5    3    1      -0.0003065689  -0.0005150024       0.0005993430
haritz    4    6    3    1      -0.0004648608   0.0011787440       0.0012670963
haritz    4    7    3    1      -0.0120818208  -0.0003094906       0.0120857841
haritz    4    8    3    1       0.1918593458  -0.2670773021       0.3288469155
haritz    4    9    3    1       0.0000195482  -0.1083049545       0.1083049563
haritz    4   10    3    1      -0.4920769156  -0.4568558558       0.6714588326
haritz    4    1    4    1       0.0000428348   0.0001376545       0.0001441651
haritz    4    2    4    1       0.0001296706   0.0000054727       0.0001297861
haritz    4    3    4    1       0.0000000032   0.0000000019       0.0000000038
haritz    4    4    4    1       0.0000018746   0.0000007733       0.0000020279
haritz    4    5    4    1      -0.0002608483   0.0005791121       0.0006351478
haritz    4    6    4    1       0.0000686961  -0.0000108753       0.0000695516
haritz    4    7    4    1       0.0018132032   0.0028264606       0.0033580627
haritz    4    8    4    1       0.1330379056  -0.0483642937       0.1415563111
haritz    4    9    4    1      -0.1774393192   0.3108154909       0.3578980041
haritz    4   10    4    1      -0.0283566132   0.1843903522       0.1865580325
haritz    4    1    5    1       0.0008644955   0.0009520797       0.0012860048
haritz    4    2    5    1       0.0006196392  -0.0002575278       0.0006710241
haritz    4    3    5    1      -0.0003065634   0.0005149935       0.0005993325
haritz    4    4    5    1      -0.0002608512  -0.0005791187       0.0006351550
haritz    4    5    5    1       0.0000027345   0.0000008498       0.0000028635
haritz    4    6    5    1      -0.0000003073  -0.0000004210       0.0000005213
haritz    4    7    5    1       0.0011028768   0.0007001361       0.0013063414
haritz    4    8    5    1       0.0164441402  -0.0117035130       0.0201837054
haritz    4    9    5    1      -0.0017782735   0.0290535185       0.0291078888
haritz    4   10    5    1      -0.0006477645  -0.0021502737       0.0022457239
haritz    4    1    6    1      -0.0021249591   0.0001775488       0.0021323636
haritz    4    2    6    1      -0.0002859479   0.0010752699       0.0011126417
haritz    4    3    6    1      -0.0004648563  -0.0011787324       0.0012670838
haritz    4    4    6    1       0.0000686875   0.0000108732       0.0000695428
haritz    4    5    6    1      -0.0000003079   0.0000004206       0.0000005213
haritz    4    6    6    1       0.0000031647   0.0000008529       0.0000032776
haritz    4    7    6    1      -0.0020337642   0.0007452991       0.0021660257
haritz    4    8    6    1       0.0003998086  -0.0120820626       0.0120886758
haritz    4    9    6    1       0.0132882443   0.0115620037       0.0176141240
haritz    4   10    6    1       0.0034486378   0.0013862825       0.0037168376
haritz    4    1    7    1      -0.0026072073   0.0094975577       0.0098489153
haritz    4    2    7    1       0.2150770167   0.1507929332       0.2626720994
haritz    4    3    7    1      -0.0120818211   0.0003094905       0.0120857845
haritz    4    4    7    1       0.0018132031  -0.0028264606       0.0033580626
haritz    4    5    7    1       0.0011028797  -0.0007001387       0.0013063452
haritz    4    6    7    1      -0.0020337703  -0.0007453003       0.0021660319
haritz    4    7    7    1      -0.0000012256  -0.0000004537       0.0000013069
haritz    4    8    7    1      -0.0153123310  -0.0115582154       0.0191848853
haritz    4    9    7    1      -0.0128757042   0.0032018285       0.0132678357
haritz    4   10    7    1       0.0051017257  -0.0057795008       0.0077091008
haritz    4    1    8    1       0.1172824126  -0.0466791287       0.1262303663
haritz    4    2    8    1      -0.0108559959  -0.3082793678       0.3084704544
haritz    4    3    8    1       0.1918596313   0.2670776146       0.3288473359
haritz    4    4    8    1       0.1330374128   0.0483642325       0.1415558271
haritz    4    5    8    1       0.0164439655   0.0117034168       0.0201835073
haritz    4    6    8    1       0.0003998512   0.0120821485       0.0120887631
haritz    4    7    8    1      -0.0153123273   0.0115582118       0.0191848801
haritz    4    8    8    1      -0.0000013400  -0.0000005228       0.0000014384
haritz    4    9    8    1      -0.0000001915   0.0000000488       0.0000001977
haritz    4   10    8    1       0.0330893633   0.0025172919       0.0331849774
haritz    4    1    9    1       0.0761254949   0.0427358268       0.0873008698
haritz    4    2    9    1       0.1609963263  -0.1399758941       0.2133379197
haritz    4    3    9    1       0.0000194032   0.1083054303       0.1083054320
haritz    4    4    9    1      -0.1774391510  -0.3108151045       0.3578975852
haritz    4    5    9    1      -0.0017782850  -0.0290534265       0.0291077977
haritz    4    6    9    1       0.0132881121  -0.0115618534       0.0176139256
haritz    4    7    9    1      -0.0128757005  -0.0032018278       0.0132678319
haritz    4    8    9    1      -0.0000001934  -0.0000000475       0.0000001991
haritz    4    9    9    1      -0.0000016004  -0.0000005230       0.0000016837
haritz    4   10    9    1       0.0130328510   0.0188876649       0.0229477470
haritz    4    1   10    1       0.0031396758   0.0064222476       0.0071486243
haritz    4    2   10    1      -0.0084538365   0.0009512617       0.0085071882
haritz    4    3   10    1      -0.4920769167   0.4568558560       0.6714588335
haritz    4    4   10    1      -0.0283566131  -0.1843903534       0.1865580337
haritz    4    5   10    1      -0.0006477642   0.0021502725       0.0022457227
haritz    4    6   10    1       0.0034486360  -0.0013862818       0.0037168357
haritz    4    7   10    1       0.0051016304   0.0057793928       0.0077089567
haritz    4    8   10    1       0.0330893643  -0.0025172922       0.0331849784
haritz    4    9   10    1       0.0130328513  -0.0188876656       0.0229477477
haritz    4   10   10    1      -0.0000059217  -0.0000007820       0.0000059731
haritz    5    1    1    1      -0.0000019436  -0.0000006531       0.0000020504
haritz    5    2    1    1       0.0009268513   0.0111652720       0.0112036758
haritz    5    3    1    1       0.0001501092  -0.0004715664       0.0004948815
haritz    5    4    1    1       0.0000607540   0.0002034272       0.0002123056
haritz    5    5    1    1      -0.0007066914  -0.0001608812       0.0007247727
haritz    5    6    1    1       0.0023460721   0.0004139124       0.0023823051
haritz    5    7    1    1      -0.0018752968   0.0096688041       0.0098489852
haritz    5    8    1    1      -0.0544727744  -0.0430806491       0.0694494455
haritz    5    9    1    1      -0.0966798234   0.0968768502       0.1368653073
haritz    5   10    1    1       0.0061920480   0.0035607854       0.0071428741
haritz    5    1    2    1       0.0009268893  -0.0111657319       0.0112041373
haritz    5    2    2    1       0.0000013671   0.0000006190       0.0000015007
haritz    5    3    2    1      -0.0001699264   0.0004117770       0.0004454608
haritz    5    4    2    1      -0.0000392761  -0.0001870370       0.0001911163
haritz    5    5    2    1       0.0003605267   0.0001141339       0.0003781614
haritz    5    6    2    1      -0.0012021131  -0.0003161979       0.0012430032
haritz    5    7    2    1       0.0711937126  -0.2528412068       0.2626732201
haritz    5    8    2    1       0.1239376572   0.1159386447       0.1697124398
haritz    5    9    2    1       0.2550502291  -0.2163607203       0.3344586382
haritz    5   10    2    1       0.0070340773   0.0048828251       0.0085627229
haritz    5    1    3    1       0.0001501122   0.0004715756       0.0004948911
haritz    5    2    3    1      -0.0001699310  -0.0004117882       0.0004454728
haritz    5    3    3    1       0.0000028897   0.0000007801       0.0000029932
haritz    5    4    3    1      -0.0000000261   0.0000000271       0.0000000376
haritz    5    5    3    1       0.0001877937  -0.0000133230       0.0001882657
haritz    5    6    3    1      -0.0013213949   0.0001767839       0.0013331680
haritz    5    7    3    1      -0.0013315253  -0.0114505972       0.0115277550
haritz    5    8    3    1      -0.0017381432   0.0315189844       0.0315668737
haritz    5    9    3    1       0.1464236765  -0.3165431855       0.3487685211
haritz    5   10    3    1      -0.6257384304  -0.1364834958       0.6404500979
haritz    5    1    4    1       0.0000607544  -0.0002034286       0.0002123070
haritz    5    2    4    1      -0.0000392764   0.0001870382       0.0001911176
haritz    5    3    4    1      -0.0000000257  -0.0000000277       0.0000000378
haritz    5    4    4    1       0.0000029605   0.0000007794       0.0000030613
haritz    5    5    4    1      -0.0005507106  -0.0003054129       0.0006297294
haritz    5    6    4    1       0.0003609734   0.0001833628       0.0004048750
haritz    5    7    4    1      -0.0022947612   0.0043805064       0.0049451759
haritz    5    8    4    1      -0.2703503600  -0.2639205016       0.3778139070
haritz    5    9    4    1       0.0154850416  -0.0488248345       0.0512215871
haritz    5   10    4    1       0.1888868398   0.1994807061       0.2747194757
haritz    5    1    5    1      -0.0007066906   0.0001608809       0.0007247718
haritz    5    2    5    1       0.0003605279  -0.0001141343       0.0003781627
haritz    5    3    5    1       0.0001877927   0.0000133229       0.0001882647
haritz    5    4    5    1      -0.0005507119   0.0003054136       0.0006297310
haritz    5    5    5    1       0.0000027436   0.0000008519       0.0000028728
haritz    5    6    5    1       0.0000003361   0.0000000159       0.0000003365
haritz    5    7    5    1       0.0007357603  -0.0000236139       0.0007361392
haritz    5    8    5    1      -0.0081699001   0.0343209901       0.0352799891
haritz    5    9    5    1      -0.0168511809  -0.0061367580       0.0179338254
haritz    5   10    5    1      -0.0004479510   0.0012157736       0.0012956719
haritz    5    1    6    1       0.0023460708  -0.0004139117       0.0023823037
haritz    5    2    6    1      -0.0012021144   0.0003161985       0.0012430046
haritz    5    3    6    1      -0.0013213895  -0.0001767831       0.0013331626
haritz    5    4    6    1       0.0003609721  -0.0001833622       0.0004048735
haritz    5    5    6    1       0.0000003357  -0.0000000066       0.0000003358
haritz    5    6    6    1       0.0000019784   0.0000008442       0.0000021510
haritz    5    7    6    1      -0.0024195069  -0.0000408103       0.0024198510
haritz    5    8    6    1      -0.0030191611   0.0103456782       0.0107772163
haritz    5    9    6    1      -0.0049502818  -0.0020676687       0.0053647501
haritz    5   10    6    1       0.0014128182  -0.0039689389       0.0042129006
haritz    5    1    7    1      -0.0018752843  -0.0096687455       0.0098489253
haritz    5    2    7    1       0.0711934182   0.2528401573       0.2626721301
haritz    5    3    7    1      -0.0013315253   0.0114505962       0.0115277540
haritz    5    4    7    1      -0.0022947609  -0.0043805060       0.0049451754
haritz    5    5    7    1       0.0007357615   0.0000236136       0.0007361403
haritz    5    6    7    1      -0.0024195089   0.0000408115       0.0024198531
haritz    5    7    7    1      -0.0000015373  -0.0000004558       0.0000016034
haritz    5    8    7    1      -0.0093727748  -0.0048521230       0.0105542411
haritz    5    9    7    1      -0.0116207960   0.0172510987       0.0208000795
haritz    5   10    7    1      -0.0073109289  -0.0025122372       0.0077305250
haritz    5    1    8    1      -0.0544727745   0.0430806502       0.0694494463
haritz    5    2    8    1       0.1239376558  -0.1159386438       0.1697124381
haritz    5    3    8    1      -0.0017376610  -0.0315191128       0.0315669754
haritz    5    4    8    1      -0.2703500290   0.2639202376       0.3778134857
haritz    5    5    8    1      -0.0081698698  -0.0343208330       0.0352798292
haritz    5    6    8    1      -0.0030191006  -0.0103455381       0.0107770649
haritz    5    7    8    1      -0.0093727741   0.0048521222       0.0105542401
haritz    5    8    8    1      -0.0000027709  -0.0000005207       0.0000028194
haritz    5    9    8    1       0.0000007811  -0.0000004894       0.0000009218
haritz    5   10    8    1      -0.0026933906  -0.0180564301       0.0182562050
haritz    5    1    9    1      -0.0966798252  -0.0968768496       0.1368653082
haritz    5    2    9    1       0.2550502282   0.2163607191       0.3344586368
haritz    5    3    9    1       0.1464238946   0.3165435481       0.3487689418
haritz    5    4    9    1       0.0154846347   0.0488245463       0.0512211893
haritz    5    5    9    1      -0.0168510424   0.0061366958       0.0179336741
haritz    5    6    9    1      -0.0049504103   0.0020677644       0.0053649056
haritz    5    7    9    1      -0.0116207943  -0.0172510971       0.0208000772
haritz    5    8    9    1       0.0000007843   0.0000004893       0.0000009245
haritz    5    9    9    1      -0.0000038276  -0.0000005244       0.0000038634
haritz    5   10    9    1       0.0347464345  -0.0093227890       0.0359753959
haritz    5    1   10    1       0.0061922450  -0.0035608984       0.0071431012
haritz    5    2   10    1       0.0070337013  -0.0048825651       0.0085622658
haritz    5    3   10    1      -0.6257384263   0.1364834944       0.6404500936
haritz    5    4   10    1       0.1888868397  -0.1994807057       0.2747194753
haritz    5    5   10    1      -0.0004479509  -0.0012157733       0.0012956716
haritz    5    6   10    1       0.0014128180   0.0039689386       0.0042129002
haritz    5    7   10    1      -0.0073107934   0.0025121908       0.0077303817
haritz    5    8   10    1      -0.0026933904   0.0180564289       0.0182562038
haritz    5    9   10    1       0.0347464330   0.0093227883       0.0359753942
haritz    5   10   10    1       0.0000037047  -0.0000007805       0.0000037861
haritz    6    1    1    1      -0.0000019396  -0.0000006254       0.0000020379
haritz    6    2    1    1      -0.0000000004   0.0000000084       0.0000000084
haritz    6    3    1    1      -0.0000002833  -0.0000009540       0.0000009951
haritz    6    4    1    1      -0.0000018638   0.0000931377       0.0000931563
haritz    6    5    1    1       0.0028168911  -0.0010711001       0.0030136574
haritz    6    6    1    1       0.0000000128   0.0000000015       0.0000000129
haritz    6    7    1    1      -0.0019592392  -0.0007922351       0.0021133515
haritz    6    8    1    1      -0.1221900029   0.0131814612       0.1228989330
haritz    6    9    1    1      -0.0000011508   0.0000039327       0.0000040976
haritz    6   10    1    1       0.0000021455  -0.0000055234       0.0000059255
haritz    6    1    2    1       0.0000000012  -0.0000000107       0.0000000107
haritz    6    2    2    1       0.0000020675   0.0000006673       0.0000021726
haritz    6    3    2    1       0.0000000023   0.0000000054       0.0000000059
haritz    6    4    2    1       0.0025635151  -0.0062088346       0.0067172343
haritz    6    5    2    1       0.0002076240   0.0000018600       0.0002076324
haritz    6    6    2    1      -0.0000000042  -0.0000000028       0.0000000051
haritz    6    7    2    1      -0.5811827786   0.0904637129       0.5881811842
haritz    6    8    2    1       0.0080764875  -0.0060915541       0.0101161595
haritz    6    9    2    1       0.0000118935   0.0000213282       0.0000244202
haritz    6   10    2    1      -0.0000144761  -0.0000276737       0.0000312313
haritz    6    1    3    1      -0.0000007830   0.0000006128       0.0000009943
haritz    6    2    3    1       0.0000000060  -0.0000000054       0.0000000081
haritz    6    3    3    1       0.0000021035   0.0000006790       0.0000022104
haritz    6    4    3    1      -0.0000222264  -0.0000149697       0.0000267975
haritz    6    5    3    1      -0.0002036159   0.0008476357       0.0008717486
haritz    6    6    3    1      -0.0000000003  -0.0000000018       0.0000000018
haritz    6    7    3    1       0.0030559334  -0.0020346378       0.0036713049
haritz    6    8    3    1       0.1007585099  -0.1881856057       0.2134621735
haritz    6    9    3    1      -0.0000081572  -0.0000109260       0.0000136351
haritz    6   10    3    1       0.0000106574   0.0000176911       0.0000206532
haritz    6    1    4    1      -0.0000018628  -0.0000931426       0.0000931613
haritz    6    2    4    1       0.0025635157   0.0062088356       0.0067172354
haritz    6    3    4    1      -0.0000222194   0.0000149668       0.0000267900
haritz    6    4    4    1       0.0000025208   0.0000008184       0.0000026503
haritz    6    5    4    1      -0.0000000019   0.0000000189       0.0000000190
haritz    6    6    4    1       0.0000024055  -0.0000170626       0.0000172313
haritz    6    7    4    1       0.0000003194   0.0000011433       0.0000011871
haritz    6    8    4    1      -0.0000000037  -0.0000000680       0.0000000681
haritz    6    9    4    1       0.0013574115   0.0003861716       0.0014112741
haritz    6   10    4    1      -0.2429579943   0.3498653939       0.4259511484
haritz    6    1    5    1       0.0028168913   0.0010711006       0.0030136578
haritz    6    2    5    1       0.0002076150  -0.0000018578       0.0002076233
haritz    6    3    5    1      -0.0002036160  -0.0008476351       0.0008717481
haritz    6    4    5    1      -0.0000000055  -0.0000000193       0.0000000200
haritz    6    5    5    1       0.0000025101   0.0000008090       0.0000026372
haritz    6    6    5    1       0.0005017390   0.0002563593       0.0005634378
haritz    6    7    5    1      -0.0000000072   0.0000008015       0.0000008015
haritz    6    8    5    1       0.0000011608   0.0000009998       0.0000015320
haritz    6    9    5    1      -0.0278766610   0.0364186743       0.0458631449
haritz    6   10    5    1       0.0060766337   0.0125038765       0.0139022446
haritz    6    1    6    1       0.0000000121  -0.0000000084       0.0000000147
haritz    6    2    6    1      -0.0000000043   0.0000000027       0.0000000051
haritz    6    3    6    1      -0.0000000067   0.0000000073       0.0000000099
haritz    6    4    6    1       0.0000024089   0.0000170725       0.0000172416
haritz    6    5    6    1       0.0005017379  -0.0002563588       0.0005634365
haritz    6    6    6    1       0.0000027067   0.0000008711       0.0000028434
haritz    6    7    6    1       0.0003348986   0.0000943960       0.0003479478
haritz    6    8    6    1       0.0197462848  -0.0043435529       0.0202183633
haritz    6    9    6    1      -0.0000151859   0.0000404678       0.0000432233
haritz    6   10    6    1       0.0000235590  -0.0000546308       0.0000594941
haritz    6    1    7    1      -0.0019592361   0.0007922382       0.0021133498
haritz    6    2    7    1      -0.5811827786  -0.0904637114       0.5881811840
haritz    6    3    7    1       0.0030559332   0.0020346388       0.0036713054
haritz    6    4    7    1       0.0000009565  -0.0000007557       0.0000012190
haritz    6    5    7    1      -0.0000000020  -0.0000007702       0.0000007702
haritz    6    6    7    1       0.0003348996  -0.0000943949       0.0003479485
haritz    6    7    7    1      -0.0000017526  -0.0000005561       0.0000018387
haritz    6    8    7    1       0.0000000763   0.0000000692       0.0000001030
haritz    6    9    7    1      -0.0000251151  -0.0002544126       0.0002556492
haritz    6   10    7    1      -0.0707635954  -0.1594599957       0.1744562314
haritz    6    1    8    1      -0.1221900037  -0.0131814590       0.1228989335
haritz    6    2    8    1       0.0080764858   0.0060915551       0.0101161587
haritz    6    3    8    1       0.1007585104   0.1881856053       0.2134621734
haritz    6    4    8    1      -0.0000000340   0.0000000542       0.0000000640
haritz    6    5    8    1       0.0000013492  -0.0000002803       0.0000013780
haritz    6    6    8    1       0.0197462845   0.0043435551       0.0202183635
haritz    6    7    8    1       0.0000000759  -0.0000000700       0.0000001032
haritz    6    8    8    1      -0.0000017517  -0.0000005617       0.0000018396
haritz    6    9    8    1       0.0057415575  -0.0137695063       0.0149186053
haritz    6   10    8    1       0.0001646214   0.0022280921       0.0022341653
haritz    6    1    9    1      -0.0000012680  -0.0000038978       0.0000040989
haritz    6    2    9    1       0.0000118932  -0.0000213278       0.0000244197
haritz    6    3    9    1      -0.0000074720   0.0000114837       0.0000137006
haritz    6    4    9    1       0.0013574076  -0.0003861694       0.0014112697
haritz    6    5    9    1      -0.0278766623  -0.0364186730       0.0458631447
haritz    6    6    9    1      -0.0000151869  -0.0000404675       0.0000432234
haritz    6    7    9    1      -0.0000251213   0.0002544090       0.0002556462
haritz    6    8    9    1       0.0057415592   0.0137695064       0.0149186062
haritz    6    9    9    1      -0.0000099984  -0.0000004911       0.0000100105
haritz    6   10    9    1       0.0000185831   0.0000004975       0.0000185897
haritz    6    1   10    1       0.0000021469   0.0000055225       0.0000059251
haritz    6    2   10    1      -0.0000133337   0.0000284094       0.0000313828
haritz    6    3   10    1       0.0000106543  -0.0000176914       0.0000206519
haritz    6    4   10    1      -0.2429579939  -0.3498653937       0.4259511480
haritz    6    5   10    1       0.0060766360  -0.0125038787       0.0139022476
haritz    6    6   10    1       0.0000235590   0.0000546308       0.0000594941
haritz    6    7   10    1      -0.0707635953   0.1594599958       0.1744562314
haritz    6    8   10    1       0.0001646216  -0.0022280922       0.0022341654
haritz    6    9   10    1       0.0000185823  -0.0000004966       0.0000185889
haritz    6   10   10    1      -0.0000366602  -0.0000004885       0.0000366634
haritz    7    1    1    1       0.0000011950   0.0000003097       0.0000012345
haritz    7    2    1    1       0.0022335908  -0.0009078017       0.0024110230
haritz    7    3    1    1       0.0016406345  -0.0006767394       0.0017747276
haritz    7    4    1    1      -0.0008210758  -0.0043776427       0.0044539781
haritz    7    5    1    1       0.0001255075  -0.0001280046       0.0001792689
haritz    7    6    1    1       0.0311984688  -0.0041586553       0.0314744161
haritz    7    7    1    1      -0.0564885682   0.0118802148       0.0577243263
haritz    7    8    1    1      -0.0287799250   0.0076492573       0.0297791072
haritz    7    9    1    1      -0.1907194077  -0.3314857222       0.3824351925
haritz    7   10    1    1      -0.1574508186   0.0004679130       0.1574515139
haritz    7    1    2    1       0.0022334110   0.0009077286       0.0024108289
haritz    7    2    2    1       0.0000015854   0.0000004953       0.0000016610
haritz    7    3    2    1      -0.0000083126  -0.0016028908       0.0016029123
haritz    7    4    2    1       0.0011677820   0.0002376175       0.0011917118
haritz    7    5    2    1       0.0001323865   0.0003045429       0.0003320732
haritz    7    6    2    1      -0.0007872398   0.0030367373       0.0031371197
haritz    7    7    2    1       0.0339688856  -0.1881934335       0.1912345513
haritz    7    8    2    1      -0.0070936120   0.0559562480       0.0564040870
haritz    7    9    2    1       0.1089310544  -0.0149307781       0.1099495464
haritz    7   10    2    1       0.0281129317  -0.0697941670       0.0752433564
haritz    7    1    3    1       0.0016402822   0.0006765942       0.0017743465
haritz    7    2    3    1      -0.0000083119   0.0016027493       0.0016027709
haritz    7    3    3    1       0.0000011135   0.0000005745       0.0000012530
haritz    7    4    3    1       0.0016269811   0.0003386927       0.0016618605
haritz    7    5    3    1      -0.0001870193  -0.0004384685       0.0004766874
haritz    7    6    3    1       0.0037095742  -0.0140360478       0.0145179743
haritz    7    7    3    1       0.0016155403  -0.0087022093       0.0088508992
haritz    7    8    3    1       0.0071054475  -0.0538666116       0.0543332240
haritz    7    9    3    1       0.2024571588  -0.0267101073       0.2042114859
haritz    7   10    3    1       0.0333080347  -0.0815046587       0.0880479107
haritz    7    1    4    1      -0.0008210751   0.0043776396       0.0044539749
haritz    7    2    4    1       0.0011677918  -0.0002376192       0.0011917217
haritz    7    3    4    1       0.0016269790  -0.0003386923       0.0016618584
haritz    7    4    4    1       0.0000019594   0.0000008067       0.0000021189
haritz    7    5    4    1       0.0000864701  -0.0000601367       0.0001053257
haritz    7    6    4    1      -0.0009509961  -0.0000504713       0.0009523345
haritz    7    7    4    1      -0.0049102574   0.0001071437       0.0049114262
haritz    7    8    4    1       0.0235447251  -0.0017521394       0.0236098300
haritz    7    9    4    1      -0.0236756968  -0.0676567602       0.0716796751
haritz    7   10    4    1      -0.3964510208  -0.0731763100       0.4031478442
haritz    7    1    5    1       0.0001255057   0.0001280025       0.0001792661
haritz    7    2    5    1       0.0001323868  -0.0003045429       0.0003320732
haritz    7    3    5    1      -0.0001870234   0.0004384788       0.0004766985
haritz    7    4    5    1       0.0000864648   0.0000601330       0.0001053192
haritz    7    5    5    1       0.0000033748   0.0000009094       0.0000034952
haritz    7    6    5    1      -0.0000604853   0.0000767960       0.0000977553
haritz    7    7    5    1      -0.0020171565   0.0030290058       0.0036392027
haritz    7    8    5    1       0.0037391017  -0.0063083455       0.0073332193
haritz    7    9    5    1       0.0164582775   0.0046025758       0.0170897221
haritz    7   10    5    1      -0.0073610564   0.0072668109       0.0103436788
haritz    7    1    6    1       0.0311973306   0.0041585034       0.0314732679
haritz    7    2    6    1      -0.0007873869  -0.0030373043       0.0031377055
haritz    7    3    6    1       0.0037093488   0.0140351937       0.0145170910
haritz    7    4    6    1      -0.0009509925   0.0000504711       0.0009523308
haritz    7    5    6    1      -0.0000604917  -0.0000768032       0.0000977649
haritz    7    6    6    1       0.0000003734   0.0000000019       0.0000003734
haritz    7    7    6    1      -0.0017305183  -0.0230788978       0.0231436863
haritz    7    8    6    1      -0.0020111475  -0.0157083527       0.0158365734
haritz    7    9    6    1       0.0668731645  -0.0274611568       0.0722920139
haritz    7   10    6    1       0.0033482087  -0.0257149317       0.0259319921
haritz    7    1    7    1      -0.0564890842  -0.0118803238       0.0577248537
haritz    7    2    7    1       0.0339690670   0.1881944314       0.1912355655
haritz    7    3    7    1       0.0016155246   0.0087021224       0.0088508109
haritz    7    4    7    1      -0.0049102613  -0.0001071444       0.0049114301
haritz    7    5    7    1      -0.0020171594  -0.0030290114       0.0036392090
haritz    7    6    7    1      -0.0017305347   0.0230791274       0.0231439165
haritz    7    7    7    1      -0.0000010624  -0.0000003861       0.0000011303
haritz    7    8    7    1       0.0005228356   0.0099617164       0.0099754273
haritz    7    9    7    1       0.0211170284  -0.0068759296       0.0222082709
haritz    7   10    7    1      -0.0010500536   0.0050659246       0.0051736065
haritz    7    1    8    1      -0.0287796040  -0.0076491726       0.0297787751
haritz    7    2    8    1      -0.0070935183  -0.0559555097       0.0564033427
haritz    7    3    8    1       0.0071053616   0.0538659536       0.0543325604
haritz    7    4    8    1       0.0235447234   0.0017521383       0.0236098282
haritz    7    5    8    1       0.0037391028   0.0063083481       0.0073332221
haritz    7    6    8    1      -0.0020111207   0.0157081394       0.0158363585
haritz    7    7    8    1       0.0005228333  -0.0099616531       0.0099753640
haritz    7    8    8    1      -0.0000015307  -0.0000004555       0.0000015970
haritz    7    9    8    1      -0.0155438960   0.0041735284       0.0160944414
haritz    7   10    8    1      -0.0004746471   0.0018073253       0.0018686130
haritz    7    1    9    1      -0.1907194076   0.3314857252       0.3824351951
haritz    7    2    9    1       0.1089310512   0.0149307777       0.1099495432
haritz    7    3    9    1       0.2024571568   0.0267101066       0.2042114839
haritz    7    4    9    1      -0.0236754848   0.0676561584       0.0716790370
haritz    7    5    9    1       0.0164582867  -0.0046025775       0.0170897314
haritz    7    6    9    1       0.0668731601   0.0274611557       0.0722920093
haritz    7    7    9    1       0.0211170314   0.0068759313       0.0222082743
haritz    7    8    9    1      -0.0155438998  -0.0041735305       0.0160944455
haritz    7    9    9    1      -0.0000017856  -0.0000005792       0.0000018772
haritz    7   10    9    1      -0.1859209506  -0.1062374010       0.2141331017
haritz    7    1   10    1      -0.1574498855  -0.0004679103       0.1574505808
haritz    7    2   10    1       0.0281128676   0.0697940084       0.0752431853
haritz    7    3   10    1       0.0333078074   0.0815041037       0.0880473109
haritz    7    4   10    1      -0.3964510224   0.0731763105       0.4031478458
haritz    7    5   10    1      -0.0073610610  -0.0072668154       0.0103436852
haritz    7    6   10    1       0.0033481996   0.0257148594       0.0259319192
haritz    7    7   10    1      -0.0010500865  -0.0050660805       0.0051737659
haritz    7    8   10    1      -0.0004746622  -0.0018073825       0.0018686722
haritz    7    9   10    1      -0.1859209500   0.1062374012       0.2141331013
haritz    7   10   10    1      -0.0000018365  -0.0000005310       0.0000019117
haritz    8    1    1    1      -0.0000006623  -0.0000002116       0.0000006953
haritz    8    2    1    1      -0.0000000594  -0.0000000139       0.0000000610
haritz    8    3    1    1      -0.0032693247  -0.0049873865       0.0059634310
haritz    8    4    1    1       0.0003223201  -0.0018413491       0.0018693466
haritz    8    5    1    1      -0.0000006351   0.0000002415       0.0000006794
haritz    8    6    1    1       0.0504853047  -0.0128314261       0.0520904165
haritz    8    7    1    1      -0.0000002530   0.0000000680       0.0000002620
haritz    8    8    1    1      -0.0136203125   0.0312050190       0.0340479973
haritz    8    9    1    1       0.0135507444  -0.2024523357       0.2029053250
haritz    8   10    1    1       0.0916742695  -0.1634626877       0.1874145725
haritz    8    1    2    1      -0.0000000593   0.0000000131       0.0000000608
haritz    8    2    2    1       0.0000018890   0.0000006054       0.0000019836
haritz    8    3    2    1       0.0000004768  -0.0000002120       0.0000005218
haritz    8    4    2    1       0.0000005265   0.0000001553       0.0000005489
haritz    8    5    2    1      -0.0004004971  -0.0024310408       0.0024638095
haritz    8    6    2    1       0.0000000264   0.0000004425       0.0000004433
haritz    8    7    2    1      -0.0384702871  -0.1682028550       0.1725461197
haritz    8    8    2    1      -0.0000003870  -0.0000002157       0.0000004431
haritz    8    9    2    1       0.0000005783   0.0000019671       0.0000020503
haritz    8   10    2    1       0.0000005089   0.0000024373       0.0000024898
haritz    8    1    3    1      -0.0032694985   0.0049876514       0.0059637478
haritz    8    2    3    1       0.0000004744   0.0000002175       0.0000005218
haritz    8    3    3    1       0.0000020165   0.0000006524       0.0000021195
haritz    8    4    3    1       0.0014191989  -0.0015124027       0.0020740027
haritz    8    5    3    1       0.0000000107   0.0000000208       0.0000000233
haritz    8    6    3    1      -0.0050736852  -0.0017462323       0.0053657812
haritz    8    7    3    1      -0.0000001286  -0.0000000784       0.0000001505
haritz    8    8    3    1       0.1051465302  -0.0687276823       0.1256156325
haritz    8    9    3    1       0.2471924255  -0.3270883018       0.4099888442
haritz    8   10    3    1       0.2373122416  -0.1233525707       0.2674564576
haritz    8    1    4    1       0.0003223193   0.0018413476       0.0018693450
haritz    8    2    4    1       0.0000005291  -0.0000001480       0.0000005494
haritz    8    3    4    1       0.0014191935   0.0015123966       0.0020739946
haritz    8    4    4    1       0.0000024788   0.0000007938       0.0000026028
haritz    8    5    4    1       0.0000005125  -0.0000002923       0.0000005900
haritz    8    6    4    1      -0.0010002559   0.0004493519       0.0010965533
haritz    8    7    4    1      -0.0000001079  -0.0000000015       0.0000001079
haritz    8    8    4    1      -0.0064528628   0.0265682851       0.0273406878
haritz    8    9    4    1      -0.0227810488  -0.2131895270       0.2144032430
haritz    8   10    4    1       0.1909009230  -0.5434117252       0.5759682851
haritz    8    1    5    1      -0.0000006323  -0.0000002497       0.0000006798
haritz    8    2    5    1      -0.0004004983   0.0024310494       0.0024638182
haritz    8    3    5    1       0.0000000108  -0.0000000203       0.0000000230
haritz    8    4    5    1       0.0000005093   0.0000002982       0.0000005902
haritz    8    5    5    1       0.0000026209   0.0000008486       0.0000027549
haritz    8    6    5    1       0.0000000386  -0.0000003511       0.0000003532
haritz    8    7    5    1       0.0008228381   0.0133493788       0.0133747141
haritz    8    8    5    1      -0.0000002430  -0.0000002338       0.0000003372
haritz    8    9    5    1       0.0000000380  -0.0000011010       0.0000011017
haritz    8   10    5    1       0.0000001562  -0.0000014746       0.0000014828
haritz    8    1    6    1       0.0504866721   0.0128317729       0.0520918272
haritz    8    2    6    1       0.0000000313  -0.0000004420       0.0000004431
haritz    8    3    6    1      -0.0050739522   0.0017463245       0.0053660638
haritz    8    4    6    1      -0.0010002489  -0.0004493482       0.0010965453
haritz    8    5    6    1       0.0000000340   0.0000003514       0.0000003531
haritz    8    6    6    1       0.0000013983   0.0000004453       0.0000014674
haritz    8    7    6    1      -0.0000000465  -0.0000000400       0.0000000613
haritz    8    8    6    1       0.0018296200   0.0014215751       0.0023169776
haritz    8    9    6    1      -0.0175370178  -0.0057288290       0.0184490236
haritz    8   10    6    1      -0.0437579413  -0.0415938224       0.0603722079
haritz    8    1    7    1      -0.0000002519  -0.0000000705       0.0000002616
haritz    8    2    7    1      -0.0384699991   0.1682016006       0.1725448327
haritz    8    3    7    1      -0.0000001289   0.0000000766       0.0000001499
haritz    8    4    7    1      -0.0000001068  -0.0000000002       0.0000001068
haritz    8    5    7    1       0.0008228373  -0.0133493821       0.0133747173
haritz    8    6    7    1      -0.0000000468   0.0000000399       0.0000000615
haritz    8    7    7    1      -0.0000012176  -0.0000003920       0.0000012792
haritz    8    8    7    1       0.0000001469   0.0000001259       0.0000001935
haritz    8    9    7    1       0.0000004404  -0.0000007601       0.0000008785
haritz    8   10    7    1       0.0000000164  -0.0000012558       0.0000012559
haritz    8    1    8    1      -0.0136203130  -0.0312050187       0.0340479973
haritz    8    2    8    1      -0.0000003900   0.0000002113       0.0000004436
haritz    8    3    8    1       0.1051457704   0.0687271856       0.1256147247
haritz    8    4    8    1      -0.0064528645  -0.0265682876       0.0273406907
haritz    8    5    8    1      -0.0000002460   0.0000002304       0.0000003371
haritz    8    6    8    1       0.0018296850  -0.0014216233       0.0023170585
haritz    8    7    8    1       0.0000001485  -0.0000001242       0.0000001936
haritz    8    8    8    1      -0.0000014873  -0.0000004802       0.0000015629
haritz    8    9    8    1       0.0137563637   0.0383127395       0.0407075368
haritz    8   10    8    1      -0.0018596822   0.0186154195       0.0187080801
haritz    8    1    9    1       0.0135507454   0.2024523334       0.2029053227
haritz    8    2    9    1       0.0000005785  -0.0000019662       0.0000020496
haritz    8    3    9    1       0.2471924280   0.3270883031       0.4099888468
haritz    8    4    9    1      -0.0227809643   0.2131887517       0.2144024631
haritz    8    5    9    1       0.0000000376   0.0000011004       0.0000011010
haritz    8    6    9    1      -0.0175370183   0.0057288290       0.0184490241
haritz    8    7    9    1       0.0000004435   0.0000007665       0.0000008855
haritz    8    8    9    1       0.0137563644  -0.0383127375       0.0407075351
haritz    8    9    9    1      -0.0000020929  -0.0000005206       0.0000021567
haritz    8   10    9    1       0.0398814575  -0.0837798971       0.0927879400
haritz    8    1   10    1       0.0916741800   0.1634625285       0.1874143898
haritz    8    2   10    1       0.0000005093  -0.0000024368       0.0000024894
haritz    8    3   10    1       0.2373115195   0.1233521957       0.2674556439
haritz    8    4   10    1       0.1909009247   0.5434117292       0.5759682895
haritz    8    5   10    1       0.0000001580   0.0000014763       0.0000014847
haritz    8    6   10    1      -0.0437579168   0.0415937976       0.0603721731
haritz    8    7   10    1       0.0000000158   0.0000012553       0.0000012554
[...]
haritz   63    6    1    3      -0.0000012871  -0.0000013628       0.0000018745
haritz   63    7    1    3       0.0006978078   0.0096817016       0.0097068162
haritz   63    8    1    3       0.0000003228   0.0000000080       0.0000003229
haritz   63    9    1    3      -0.0000000309  -0.0000005294       0.0000005303
haritz   63   10    1    3       0.0000000604   0.0000005448       0.0000005481
haritz   63    1    2    3       0.0003749080  -0.0011266893       0.0011874278
haritz   63    2    2    3      -0.0000019318   0.0000000269       0.0000019320
haritz   63    3    2    3       0.0005061205   0.0009047114       0.0010366585
haritz   63    4    2    3       0.0000000012   0.0000000078       0.0000000079
haritz   63    5    2    3       0.0000000271   0.0000000155       0.0000000312
haritz   63    6    2    3      -0.0025971385   0.0010907770       0.0028168995
haritz   63    7    2    3      -0.0000017425  -0.0000002563       0.0000017612
haritz   63    8    2    3      -0.1524855462   0.3657119326       0.3962285445
haritz   63    9    2    3      -0.0000001856   0.0000011137       0.0000011290
haritz   63   10    2    3       0.0030805357  -0.0057210002       0.0064976567
haritz   63    1    3    3      -0.0000000078   0.0000000853       0.0000000857
haritz   63    2    3    3       0.0005061185  -0.0009047078       0.0010366543
haritz   63    3    3    3      -0.0000010036   0.0000000306       0.0000010041
haritz   63    4    3    3       0.0000000009  -0.0000000004       0.0000000010
haritz   63    5    3    3      -0.0000000551   0.0000000300       0.0000000627
haritz   63    6    3    3      -0.0000000942   0.0000004355       0.0000004456
haritz   63    7    3    3       0.1572788638  -0.1656961199       0.2284553461
haritz   63    8    3    3       0.0000006160   0.0000009186       0.0000011060
haritz   63    9    3    3      -0.0000030082   0.0000037485       0.0000048062
haritz   63   10    3    3       0.0000039471  -0.0000056979       0.0000069314
haritz   63    1    4    3      -0.0000000080   0.0000000109       0.0000000135
haritz   63    2    4    3       0.0000000029  -0.0000000107       0.0000000111
haritz   63    3    4    3       0.0000000009   0.0000000014       0.0000000017
haritz   63    4    4    3      -0.0000018926   0.0000000377       0.0000018930
haritz   63    5    4    3      -0.0002602980  -0.0008955256       0.0009325884
haritz   63    6    4    3       0.0000000081   0.0000000042       0.0000000091
haritz   63    7    4    3       0.0000000019  -0.0000000217       0.0000000217
haritz   63    8    4    3       0.0000000176  -0.0000000148       0.0000000231
haritz   63    9    4    3      -0.0000010863  -0.0000000412       0.0000010871
haritz   63   10    4    3       0.0000001013   0.0000001306       0.0000001653
haritz   63    1    5    3      -0.0000000160   0.0000000287       0.0000000328
haritz   63    2    5    3       0.0000000278  -0.0000000162       0.0000000322
haritz   63    3    5    3      -0.0000000551  -0.0000000301       0.0000000627
haritz   63    4    5    3      -0.0002602993   0.0008955300       0.0009325930
haritz   63    5    5    3      -0.0000014199   0.0000000399       0.0000014205
haritz   63    6    5    3      -0.0000000364   0.0000000205       0.0000000418
haritz   63    7    5    3      -0.0000000095  -0.0000001637       0.0000001640
haritz   63    8    5    3      -0.0000000238  -0.0000000039       0.0000000241
haritz   63    9    5    3       0.0038799489  -0.0238397592       0.0241534288
haritz   63   10    5    3       0.0000010987   0.0000013622       0.0000017501
haritz   63    1    6    3      -0.0000012376   0.0000014062       0.0000018732
haritz   63    2    6    3      -0.0025971357  -0.0010907758       0.0028168965
haritz   63    3    6    3      -0.0000001062  -0.0000004342       0.0000004470
haritz   63    4    6    3       0.0000000072  -0.0000000040       0.0000000082
haritz   63    5    6    3      -0.0000000338  -0.0000000217       0.0000000402
haritz   63    6    6    3      -0.0000018241   0.0000000200       0.0000018242
haritz   63    7    6    3      -0.0063400374  -0.0047887496       0.0079453254
haritz   63    8    6    3       0.0000001440  -0.0000000886       0.0000001691
haritz   63    9    6    3      -0.0000016744  -0.0000011710       0.0000020432
haritz   63   10    6    3       0.0000021768   0.0000015745       0.0000026865
haritz   63    1    7    3       0.0006978074  -0.0096817004       0.0097068150
haritz   63    2    7    3      -0.0000017277   0.0000003138       0.0000017559
haritz   63    3    7    3       0.1572788651   0.1656961209       0.2284553477
haritz   63    4    7    3       0.0000000008   0.0000000206       0.0000000206
haritz   63    5    7    3      -0.0000000099   0.0000001635       0.0000001638
haritz   63    6    7    3      -0.0063400377   0.0047887499       0.0079453259
haritz   63    7    7    3       0.0000008268  -0.0000000191       0.0000008270
haritz   63    8    7    3       0.0045411888  -0.0309343461       0.0312658946
haritz   63    9    7    3       0.0000000363   0.0000005196       0.0000005208
haritz   63   10    7    3      -0.0086459603   0.0346329194       0.0356958223
haritz   63    1    8    3       0.0000003228  -0.0000000081       0.0000003229
haritz   63    2    8    3      -0.1524855476  -0.3657119357       0.3962285479
haritz   63    3    8    3       0.0000005832  -0.0000009444       0.0000011099
haritz   63    4    8    3       0.0000000178   0.0000000151       0.0000000234
haritz   63    5    8    3      -0.0000000223   0.0000000045       0.0000000227
haritz   63    6    8    3       0.0000001467   0.0000000857       0.0000001699
haritz   63    7    8    3       0.0045411887   0.0309343444       0.0312658929
haritz   63    8    8    3       0.0000009735  -0.0000000230       0.0000009737
haritz   63    9    8    3      -0.0000003410  -0.0000012892       0.0000013335
haritz   63   10    8    3      -0.0000000799   0.0000015617       0.0000015637
haritz   63    1    9    3      -0.0000000308   0.0000005291       0.0000005300
haritz   63    2    9    3      -0.0000001852  -0.0000011141       0.0000011294
haritz   63    3    9    3      -0.0000030084  -0.0000037482       0.0000048061
haritz   63    4    9    3      -0.0000010906   0.0000000779       0.0000010934
haritz   63    5    9    3       0.0038799493   0.0238397599       0.0241534296
haritz   63    6    9    3      -0.0000016745   0.0000011710       0.0000020433
haritz   63    7    9    3       0.0000000373  -0.0000005203       0.0000005217
haritz   63    8    9    3      -0.0000003412   0.0000012891       0.0000013335
haritz   63    9    9    3       0.0000013212  -0.0000000244       0.0000013215
haritz   63   10    9    3       0.0000004064  -0.0000011112       0.0000011832
haritz   63    1   10    3       0.0000000620  -0.0000005357       0.0000005393
haritz   63    2   10    3       0.0030805355   0.0057210001       0.0064976566
haritz   63    3   10    3       0.0000039798   0.0000057187       0.0000069673
haritz   63    4   10    3       0.0000001017  -0.0000001303       0.0000001653
haritz   63    5   10    3       0.0000010997  -0.0000013620       0.0000017505
haritz   63    6   10    3       0.0000021755  -0.0000015730       0.0000026846
haritz   63    7   10    3      -0.0086459602  -0.0346329197       0.0356958227
haritz   63    8   10    3      -0.0000000797  -0.0000015596       0.0000015616
haritz   63    9   10    3       0.0000004066   0.0000011112       0.0000011832
haritz   63   10   10    3       0.0000004813  -0.0000000307       0.0000004823
haritz   64    1    1    3       0.0000015878  -0.0000000311       0.0000015881
haritz   64    2    1    3      -0.0025367360   0.0109129487       0.0112039046
haritz   64    3    1    3      -0.0003850627   0.0000403786       0.0003871740
haritz   64    4    1    3       0.0002624130   0.0002669263       0.0003743130
haritz   64    5    1    3       0.0010645273   0.0000237658       0.0010647926
haritz   64    6    1    3       0.0020014310   0.0010301049       0.0022509647
haritz   64    7    1    3      -0.0074022276  -0.0064967677       0.0098489068
haritz   64    8    1    3      -0.0017614472  -0.0137562501       0.0138685656
haritz   64    9    1    3      -0.0185637805  -0.1517194218       0.1528508976
haritz   64   10    1    3      -0.0013246819  -0.0070068566       0.0071309762
haritz   64    1    2    3      -0.0025367313  -0.0109129287       0.0112038840
haritz   64    2    2    3      -0.0000019331   0.0000000304       0.0000019333
haritz   64    3    2    3      -0.0003293426   0.0001138983       0.0003484815
haritz   64    4    2    3       0.0002845406   0.0001804856       0.0003369546
haritz   64    5    2    3       0.0005438606  -0.0001135499       0.0005555879
haritz   64    6    2    3       0.0011387745   0.0002873463       0.0011744680
haritz   64    7    2    3      -0.2315169220  -0.1240833503       0.2626723491
haritz   64    8    2    3      -0.0118035027  -0.0317702211       0.0338920289
haritz   64    9    2    3      -0.1281160033  -0.3508661559       0.3735247912
haritz   64   10    2    3       0.0035044384   0.0078777258       0.0086220445
haritz   64    1    3    3      -0.0003850616  -0.0000403785       0.0003871729
haritz   64    2    3    3      -0.0003293413  -0.0001138978       0.0003484802
haritz   64    3    3    3      -0.0000014788   0.0000000344       0.0000014792
haritz   64    4    3    3      -0.0000000251   0.0000000822       0.0000000859
haritz   64    5    3    3      -0.0000123694   0.0001130002       0.0001136752
haritz   64    6    3    3      -0.0006013211   0.0009180659       0.0010974662
haritz   64    7    3    3       0.0066197597  -0.0061245263       0.0090183724
haritz   64    8    3    3       0.2716793772   0.0989571304       0.2891404463
haritz   64    9    3    3       0.2228373558  -0.0135459297       0.2232486940
haritz   64   10    3    3       0.4992573012  -0.0415558329       0.5009837722
haritz   64    1    4    3       0.0002624109  -0.0002669243       0.0003743101
haritz   64    2    4    3       0.0002845367  -0.0001804831       0.0003369500
haritz   64    3    4    3      -0.0000000250  -0.0000000821       0.0000000858
haritz   64    4    4    3      -0.0000014971   0.0000000347       0.0000014975
haritz   64    5    4    3      -0.0005380334  -0.0005549629       0.0007729578
haritz   64    6    4    3      -0.0002355004  -0.0007092251       0.0007473023
haritz   64    7    4    3       0.0006458614   0.0086945120       0.0087184675
haritz   64    8    4    3       0.2281887720  -0.1205888515       0.2580925934
haritz   64    9    4    3      -0.1664142440   0.2006291916       0.2606641002
haritz   64   10    4    3      -0.2691595437   0.4027099561       0.4843781257
haritz   64    1    5    3       0.0010645262  -0.0000237658       0.0010647915
haritz   64    2    5    3       0.0005438627   0.0001135504       0.0005555900
haritz   64    3    5    3      -0.0000123693  -0.0001129998       0.0001136748
haritz   64    4    5    3      -0.0005380360   0.0005549656       0.0007729615
haritz   64    5    5    3      -0.0000019212   0.0000000425       0.0000019217
haritz   64    6    5    3      -0.0000002929  -0.0000001085       0.0000003124
haritz   64    7    5    3      -0.0006950250   0.0008283312       0.0010812920
haritz   64    8    5    3       0.0360935796   0.0091502577       0.0372353824
haritz   64    9    5    3      -0.0032292605  -0.0008590077       0.0033415592
haritz   64   10    5    3       0.0018231299  -0.0003350016       0.0018536528
haritz   64    1    6    3       0.0020014311  -0.0010301048       0.0022509647
haritz   64    2    6    3       0.0011387745  -0.0002873464       0.0011744681
haritz   64    3    6    3      -0.0006013194  -0.0009180632       0.0010974630
haritz   64    4    6    3      -0.0002355003   0.0007092249       0.0007473021
haritz   64    5    6    3      -0.0000002937   0.0000001070       0.0000003125
haritz   64    6    6    3      -0.0000024338   0.0000000382       0.0000024341
haritz   64    7    6    3      -0.0005545310   0.0022176671       0.0022859467
haritz   64    8    6    3      -0.0172371770   0.0035735749       0.0176037129
haritz   64    9    6    3       0.0016402351  -0.0003632530       0.0016799773
haritz   64   10    6    3       0.0031416644  -0.0024585826       0.0039893212
haritz   64    1    7    3      -0.0074022304   0.0064967699       0.0098489103
haritz   64    2    7    3      -0.2315169687   0.1240833755       0.2626724022
haritz   64    3    7    3       0.0066197597   0.0061245264       0.0090183725
haritz   64    4    7    3       0.0006458614  -0.0086945117       0.0087184672
haritz   64    5    7    3      -0.0006950261  -0.0008283325       0.0010812936
haritz   64    6    7    3      -0.0005545311  -0.0022176670       0.0022859466
haritz   64    7    7    3       0.0000009111  -0.0000000211       0.0000009113
haritz   64    8    7    3       0.0013949195  -0.0015812385       0.0021085814
haritz   64    9    7    3       0.0154714226  -0.0173298679       0.0232312126
haritz   64   10    7    3      -0.0047623538   0.0061153299       0.0077509531
haritz   64    1    8    3      -0.0017614473   0.0137562500       0.0138685656
haritz   64    2    8    3      -0.0118035027   0.0317702218       0.0338920296
haritz   64    3    8    3       0.2716793945  -0.0989571384       0.2891404652
haritz   64    4    8    3       0.2281887920   0.1205888639       0.2580926169
haritz   64    5    8    3       0.0360935898  -0.0091502604       0.0372353930
haritz   64    6    8    3      -0.0172371803  -0.0035735752       0.0176037162
haritz   64    7    8    3       0.0013949189   0.0015812381       0.0021085807
haritz   64    8    8    3       0.0000017240  -0.0000000242       0.0000017242
haritz   64    9    8    3      -0.0000003855   0.0000007464       0.0000008401
haritz   64   10    8    3      -0.0002020008  -0.0036376960       0.0036433003
haritz   64    1    9    3      -0.0185637802   0.1517194216       0.1528508974
haritz   64    2    9    3      -0.1281160037   0.3508661567       0.3735247921
haritz   64    3    9    3       0.2228373329   0.0135459301       0.2232486711
haritz   64    4    9    3      -0.1664142331  -0.2006291760       0.2606640812
haritz   64    5    9    3      -0.0032292565   0.0008590085       0.0033415555
haritz   64    6    9    3       0.0016402428   0.0003632577       0.0016799859
haritz   64    7    9    3       0.0154714225   0.0173298679       0.0232312125
haritz   64    8    9    3      -0.0000003857  -0.0000007461       0.0000008399
haritz   64    9    9    3      -0.0000000742  -0.0000000256       0.0000000785
haritz   64   10    9    3      -0.0026343544  -0.0401018328       0.0401882672
haritz   64    1   10    3      -0.0013246800   0.0070068462       0.0071309656
haritz   64    2   10    3       0.0035044470  -0.0078777452       0.0086220657
haritz   64    3   10    3       0.4992573016   0.0415558331       0.5009837727
haritz   64    4   10    3      -0.2691595446  -0.4027099575       0.4843781274
haritz   64    5   10    3       0.0018231295   0.0003350015       0.0018536524
haritz   64    6   10    3       0.0031416643   0.0024585826       0.0039893211
haritz   64    7   10    3      -0.0047623580  -0.0061153353       0.0077509599
haritz   64    8   10    3      -0.0002020008   0.0036376961       0.0036433003
haritz   64    9   10    3      -0.0026343544   0.0401018332       0.0401882675
haritz   64   10   10    3      -0.0000027213  -0.0000000371       0.0000027216

     End of self-consistent calculation

     Convergence has been achieved 
 
     Number of q in the star =    1
     List of q in the star:
          1   0.000000000   0.000000000   0.000000000

     Diagonalizing the dynamical matrix

     q = (    0.000000000   0.000000000   0.000000000 ) 

 **************************************************************************
     freq (    1) =      -0.696949 [THz] =     -23.247728 [cm-1]
     freq (    2) =      -0.694673 [THz] =     -23.171800 [cm-1]
     freq (    3) =      -0.692594 [THz] =     -23.102434 [cm-1]
 **************************************************************************

     Mode symmetry, C_1 (1)     point group:

     freq (   1-   1) =        -23.2  [cm-1]   --> A               I+R
     freq (   2-   2) =        -23.2  [cm-1]   --> A               I+R
     freq (   3-   3) =        -23.1  [cm-1]   --> A               I+R
 
     PHONON       :     39.63s CPU     40.43s WALL

     INITIALIZATION: 
     phq_setup    :      0.00s CPU      0.00s WALL (       1 calls)
     phq_init     :      0.08s CPU      0.08s WALL (       1 calls)
 
     phq_init     :      0.08s CPU      0.08s WALL (       1 calls)
     init_vloc    :      0.00s CPU      0.00s WALL (       1 calls)
     init_us_1    :      0.01s CPU      0.01s WALL (       1 calls)
 
     DYNAMICAL MATRIX:
     dynmat0      :      0.03s CPU      0.03s WALL (       1 calls)
     phqscf       :     39.42s CPU     40.16s WALL (       1 calls)
     dynmatrix    :      0.00s CPU      0.00s WALL (       1 calls)
 
     phqscf       :     39.42s CPU     40.16s WALL (       1 calls)
     solve_linter :     39.36s CPU     40.10s WALL (       3 calls)
     drhodv       :      0.05s CPU      0.06s WALL (       3 calls)
 
     dynmat0      :      0.03s CPU      0.03s WALL (       1 calls)
     dynmat_us    :      0.03s CPU      0.03s WALL (       1 calls)
     d2ionq       :      0.00s CPU      0.00s WALL (       1 calls)
 
     dynmat_us    :      0.03s CPU      0.03s WALL (       1 calls)
 
     phqscf       :     39.42s CPU     40.16s WALL (       1 calls)
     solve_linter :     39.36s CPU     40.10s WALL (       3 calls)
 
     solve_linter :     39.36s CPU     40.10s WALL (       3 calls)
     dvqpsi_us    :      0.67s CPU      0.68s WALL (     192 calls)
     ortho        :      0.05s CPU      0.05s WALL (     960 calls)
     cgsolve      :     34.10s CPU     34.57s WALL (     960 calls)
     incdrhoscf   :      1.90s CPU      1.94s WALL (     960 calls)
     vpsifft      :      1.46s CPU      1.50s WALL (     768 calls)
     dv_of_drho   :      0.01s CPU      0.01s WALL (      15 calls)
     mix_pot      :      0.01s CPU      0.01s WALL (      15 calls)
     ef_shift     :      0.01s CPU      0.02s WALL (      18 calls)
     localdos     :      0.24s CPU      0.24s WALL (       3 calls)
 
     dvqpsi_us    :      0.67s CPU      0.68s WALL (     192 calls)
     dvqpsi_us_on :      0.02s CPU      0.02s WALL (     192 calls)
 
     cgsolve      :     34.10s CPU     34.57s WALL (     960 calls)
     ch_psi       :     33.61s CPU     34.07s WALL (   20348 calls)
 
     ch_psi       :     33.61s CPU     34.07s WALL (   20348 calls)
     h_psi        :     32.20s CPU     32.64s WALL (   20348 calls)
     last         :      1.16s CPU      1.17s WALL (   20348 calls)
 
     h_psi        :     32.20s CPU     32.64s WALL (   20348 calls)
     add_vuspsi   :      0.34s CPU      0.34s WALL (   20348 calls)
 
     incdrhoscf   :      1.90s CPU      1.94s WALL (     960 calls)
 
 
      Electron-phonon coupling
     elphel       :      0.68s CPU      0.72s WALL (       3 calls)
 
      General routines
     calbec       :      0.65s CPU      0.66s WALL (   42296 calls)
     fft          :      0.01s CPU      0.03s WALL (      79 calls)
     ffts         :      0.19s CPU      0.19s WALL (    1326 calls)
     fftw         :     32.37s CPU     32.85s WALL (  227808 calls)
     davcio       :      0.12s CPU      0.25s WALL (    5265 calls)
     write_rec    :      0.00s CPU      0.01s WALL (      18 calls)
 
 
     PHONON       :     39.63s CPU     40.43s WALL

 
   This run was terminated on:  18:35: 6   2Mar2022            

=------------------------------------------------------------------------------=
   JOB DONE.
=------------------------------------------------------------------------------=
