 
             +---------------------------------------------------+
             |                                                   |
             |                   WANNIER90                       |
             |                                                   |
             +---------------------------------------------------+
             |                                                   |
             |        Welcome to the Maximally-Localized         |
             |        Generalized Wannier Functions code         |
             |            http://www.wannier.org                 |
             |                                                   |
             |                                                   |
             |  Wannier90 Developer Group:                       |
             |    Giovanni Pizzi    (EPFL)                       |
             |    Valerio Vitale    (Cambridge)                  |
             |    David Vanderbilt  (Rutgers University)         |
             |    Nicola Marzari    (EPFL)                       |
             |    Ivo Souza         (Universidad del Pais Vasco) |
             |    Arash A. Mostofi  (Imperial College London)    |
             |    Jonathan R. Yates (University of Oxford)       |
             |                                                   |
             |  For the full list of Wannier90 3.x authors,      |
             |  please check the code documentation and the      |
             |  README on the GitHub page of the code            |
             |                                                   |
             |                                                   |
             |  Please cite                                      |
             |                                                   |
             |  [ref] "Wannier90 as a community code:            |
             |        new features and applications",            |
             |        G. Pizzi et al., J. Phys. Cond. Matt. 32,  |
             |        165902 (2020).                             |
             |        http://doi.org/10.1088/1361-648X/ab51ff    |
             |                                                   |
             |  in any publications arising from the use of      |
             |  this code. For the method please cite            |
             |                                                   |
             |  [ref] "Maximally Localized Generalised Wannier   |
             |         Functions for Composite Energy Bands"     |
             |         N. Marzari and D. Vanderbilt              |
             |         Phys. Rev. B 56 12847 (1997)              |
             |                                                   |
             |  [ref] "Maximally Localized Wannier Functions     |
             |         for Entangled Energy Bands"               |
             |         I. Souza, N. Marzari and D. Vanderbilt    |
             |         Phys. Rev. B 65 035109 (2001)             |
             |                                                   |
             |                                                   |
             | Copyright (c) 1996-2020                           |
             |        The Wannier90 Developer Group and          |
             |        individual contributors                    |
             |                                                   |
             |      Release: 3.1.0        5th March    2020      |
             |                                                   |
             | This program is free software; you can            |
             | redistribute it and/or modify it under the terms  |
             | of the GNU General Public License as published by |
             | the Free Software Foundation; either version 2 of |
             | the License, or (at your option) any later version|
             |                                                   |
             | This program is distributed in the hope that it   |
             | will be useful, but WITHOUT ANY WARRANTY; without |
             | even the implied warranty of MERCHANTABILITY or   |
             | FITNESS FOR A PARTICULAR PURPOSE. See the GNU     |
             | General Public License for more details.          |
             |                                                   |
             | You should have received a copy of the GNU General|
             | Public License along with this program; if not,   |
             | write to the Free Software Foundation, Inc.,      |
             | 675 Mass Ave, Cambridge, MA 02139, USA.           |
             |                                                   |
             +---------------------------------------------------+
             |    Execution started on  2Aug2023 at 17:40:11     |
             +---------------------------------------------------+
 
 ******************************************************************************
 * -> Using CODATA 2006 constant values                                       *
 *    (http://physics.nist.gov/cuu/Constants/index.html)                      *
 * -> Using Bohr value from CODATA                                            *
 ******************************************************************************
 

 Running in serial (with parallel executable)
 
                                    ------
                                    SYSTEM
                                    ------
 
                              Lattice Vectors (Ang)
                    a_1    -2.699700   0.000000   2.699700
                    a_2     0.000000   2.699700   2.699700
                    a_3    -2.699700   2.699700   0.000000
 
                   Unit Cell Volume:      39.35286  (Ang^3)
 
                        Reciprocal-Space Vectors (Ang^-1)
                    b_1    -1.163682  -1.163682   1.163682
                    b_2     1.163682   1.163682   1.163682
                    b_3    -1.163682   1.163682  -1.163682
  
 *----------------------------------------------------------------------------*
 |   Site       Fractional Coordinate          Cartesian Coordinate (Ang)     |
 +----------------------------------------------------------------------------+
 | Si   1   0.00000   0.00000   0.00000   |    0.00000   0.00000   0.00000    |
 | Si   2   0.25000   0.25000   0.25000   |   -1.34985   1.34985   1.34985    |
 *----------------------------------------------------------------------------*
                                ------------
                                K-POINT GRID
                                ------------
  
             Grid size =  8 x  8 x  8      Total points =  512
  
  
 *---------------------------------- MAIN ------------------------------------*
 |  Number of Wannier Functions               :                 4             |
 |  Number of Objective Wannier Functions     :                 4             |
 |  Number of input Bloch states              :                 4             |
 |  Output verbosity (1=low, 5=high)          :                 1             |
 |  Timing Level (1=low, 5=high)              :                 1             |
 |  Optimisation (0=memory, 3=speed)          :                 3             |
 |  Length Unit                               :               Ang             |
 |  Post-processing setup (write *.nnkp)      :                 F             |
 |  Using Gamma-only branch of algorithms     :                 F             |
 *----------------------------------------------------------------------------*
 *------------------------------- WANNIERISE ---------------------------------*
 |  Total number of iterations                :              1000             |
 |  Number of CG steps before reset           :                 5             |
 |  Trial step length for line search         :             2.000             |
 |  Convergence tolerence                     :         0.100E-09             |
 |  Convergence window                        :                -1             |
 |  Iterations between writing output         :                10             |
 |  Iterations between backing up to disk     :               100             |
 |  Write r^2_nm to file                      :                 F             |
 |  Write xyz WF centres to file              :                 F             |
 |  Write on-site energies <0n|H|0n> to file  :                 F             |
 |  Use guiding centre to control phases      :                 F             |
 |  Use phases for initial projections        :                 F             |
 *----------------------------------------------------------------------------*
 *-------------------------------- PLOTTING ----------------------------------*
 |  Plotting interpolated bandstructure       :                 T             |
 |   Number of K-path sections                :                 4             |
 |   Divisions along first K-path section     :                20             |
 |   Output format                            :           gnuplot             |
 |   Output mode                              :               s-k             |
 *----------------------------------------------------------------------------*
 |   K-space path sections:                                                   |
 |    From: L       0.500  0.500  0.500     To: G       0.000  0.000  0.000   |
 |    From: G       0.000  0.000  0.000     To: X       0.500  0.000  0.500   |
 |    From: X       0.500 -0.500  0.000     To: K       0.375 -0.375  0.000   |
 |    From: K       0.375 -0.375  0.000     To: G       0.000  0.000  0.000   |
 *----------------------------------------------------------------------------*
 |  Plotting Hamiltonian in WF basis          :                 T             |
 *----------------------------------------------------------------------------*
 Time to read parameters        0.056 (sec)

 *---------------------------------- K-MESH ----------------------------------*
 +----------------------------------------------------------------------------+
 |                    Distance to Nearest-Neighbour Shells                    |
 |                    ------------------------------------                    |
 |          Shell             Distance (Ang^-1)          Multiplicity         |
 |          -----             -----------------          ------------         |
 |             1                   0.251945                      8            |
 |             2                   0.290921                      6            |
 |             3                   0.411424                     12            |
 |             4                   0.482437                     24            |
 |             5                   0.503889                      8            |
 |             6                   0.581841                      6            |
 |             7                   0.634047                     24            |
 |             8                   0.650518                     24            |
 |             9                   0.712607                     24            |
 |            10                   0.755834                     32            |
 |            11                   0.822848                     12            |
 |            12                   0.860555                     48            |
 |            13                   0.872762                     30            |
 |            14                   0.919972                     24            |
 |            15                   0.953847                     24            |
 |            16                   0.964874                     24            |
 |            17                   1.007778                      8            |
 |            18                   1.038794                     48            |
 |            19                   1.048929                     24            |
 |            20                   1.088525                     48            |
 |            21                   1.117302                     72            |
 |            22                   1.163682                      6            |
 |            23                   1.190644                     24            |
 |            24                   1.199496                     48            |
 |            25                   1.234271                     36            |
 |            26                   1.259723                     56            |
 |            27                   1.268093                     24            |
 |            28                   1.301036                     24            |
 |            29                   1.325206                     72            |
 |            30                   1.333166                     48            |
 |            31                   1.364538                     24            |
 |            32                   1.387603                     48            |
 |            33                   1.425214                     24            |
 |            34                   1.447312                     72            |
 |            35                   1.454603                     30            |
 |            36                   1.483410                     72            |
 +----------------------------------------------------------------------------+
 | The b-vectors are chosen automatically                                     |
 | The following shells are used:   1                                         |
 +----------------------------------------------------------------------------+
 |                        Shell   # Nearest-Neighbours                        |
 |                        -----   --------------------                        |
 |                          1               8                                 |
 +----------------------------------------------------------------------------+
 | Completeness relation is fully satisfied [Eq. (B1), PRB 56, 12847 (1997)]  |
 +----------------------------------------------------------------------------+
 |                  b_k Vectors (Ang^-1) and Weights (Ang^2)                  |
 |                  ----------------------------------------                  |
 |            No.         b_k(x)      b_k(y)      b_k(z)        w_b           |
 |            ---        --------------------------------     --------        |
 |             1        -0.145460    0.145460   -0.145460     5.907737        |
 |             2         0.145460    0.145460    0.145460     5.907737        |
 |             3        -0.145460   -0.145460    0.145460     5.907737        |
 |             4        -0.145460    0.145460    0.145460     5.907737        |
 |             5         0.145460   -0.145460    0.145460     5.907737        |
 |             6        -0.145460   -0.145460   -0.145460     5.907737        |
 |             7         0.145460    0.145460   -0.145460     5.907737        |
 |             8         0.145460   -0.145460   -0.145460     5.907737        |
 +----------------------------------------------------------------------------+
 |                           b_k Directions (Ang^-1)                          |
 |                           -----------------------                          |
 |            No.           x           y           z                         |
 |            ---        --------------------------------                     |
 |             1        -0.145460    0.145460   -0.145460                     |
 |             2         0.145460    0.145460    0.145460                     |
 |             3        -0.145460   -0.145460    0.145460                     |
 |             4        -0.145460    0.145460    0.145460                     |
 +----------------------------------------------------------------------------+
  
 Time to get kmesh              0.440 (sec)
 *============================================================================*
 |                              MEMORY ESTIMATE                               |
 |         Maximum RAM allocated during each phase of the calculation         |
 *============================================================================*
 |                            Wannierise:            3.33 Mb                  |
 |                          plot_wannier:            3.33 Mb                  |
 *----------------------------------------------------------------------------*
  
 Starting a new Wannier90 calculation ...


 Reading overlaps from si.mmn    :  intw2W90::CONVOLUTION-IBZ time:: 17:39:49 day:: 0

 Reading projections from si.amn :  intw2W90::CONVOLUTION time:: 17:39:51 day:: 02/08

 Time to read overlaps          0.138 (sec)

 Writing checkpoint file si.chk... done

 
 *------------------------------- WANNIERISE ---------------------------------*
 +--------------------------------------------------------------------+<-- CONV
 | Iter  Delta Spread     RMS Gradient      Spread (Ang^2)      Time  |<-- CONV
 +--------------------------------------------------------------------+<-- CONV
 
 ------------------------------------------------------------------------------
 Initial State
  WF centre and spread    1  ( -0.166728,  0.166728,  0.166728 )     4.28497020
  WF centre and spread    2  (  0.166728, -0.166728,  0.166728 )     4.28497019
  WF centre and spread    3  (  0.166728,  0.166728, -0.166728 )     4.28497021
  WF centre and spread    4  ( -0.166728, -0.166728, -0.166728 )     4.28497021
  Sum of centres and spreads (  0.000000, -0.000000,  0.000000 )    17.13988080
 
      0     0.171E+02     0.0000000000       17.1398808029       0.00  <-- CONV
        O_D=      1.6279551 O_OD=      7.9237507 O_TOT=     17.1398808 <-- SPRD
 ------------------------------------------------------------------------------
 Cycle:      1
  WF centre and spread    1  ( -0.154020,  0.154020,  0.154020 )     3.75580680
  WF centre and spread    2  (  0.154020, -0.154020,  0.154020 )     3.75580678
  WF centre and spread    3  (  0.154020,  0.154020, -0.154020 )     3.75580680
  WF centre and spread    4  ( -0.154020, -0.154020, -0.154020 )     3.75580680
  Sum of centres and spreads (  0.000000, -0.000000,  0.000000 )    15.02322718
 
      1    -0.212E+01     0.7814561906       15.0232271807       0.03  <-- CONV
        O_D=      0.7922349 O_OD=      6.6428173 O_TOT=     15.0232272 <-- SPRD
 Delta: O_D= -0.8357202E+00 O_OD= -0.1280933E+01 O_TOT= -0.2116654E+01 <-- DLTA
 ------------------------------------------------------------------------------
 Cycle:     10
  WF centre and spread    1  ( -0.129890,  0.129890,  0.129890 )     3.26006773
  WF centre and spread    2  (  0.129890, -0.129890,  0.129890 )     3.26006773
  WF centre and spread    3  (  0.129890,  0.129890, -0.129890 )     3.26006774
  WF centre and spread    4  ( -0.129890, -0.129890, -0.129890 )     3.26006774
  Sum of centres and spreads (  0.000000, -0.000000, -0.000000 )    13.04027093
 
     10    -0.136E-02     0.0284651353       13.0402709334       0.18  <-- CONV
        O_D=      0.0273856 O_OD=      5.4247103 O_TOT=     13.0402709 <-- SPRD
 Delta: O_D= -0.5628183E-03 O_OD= -0.7956223E-03 O_TOT= -0.1358441E-02 <-- DLTA
 ------------------------------------------------------------------------------
 Cycle:     20
  WF centre and spread    1  ( -0.129812,  0.129812,  0.129812 )     3.25987368
  WF centre and spread    2  (  0.129812, -0.129812,  0.129812 )     3.25987367
  WF centre and spread    3  (  0.129812,  0.129812, -0.129812 )     3.25987368
  WF centre and spread    4  ( -0.129812, -0.129812, -0.129812 )     3.25987368
  Sum of centres and spreads (  0.000000, -0.000000, -0.000000 )    13.03949470
 
     20    -0.363E-06     0.0003968924       13.0394947014       0.36  <-- CONV
        O_D=      0.0268997 O_OD=      5.4244200 O_TOT=     13.0394947 <-- SPRD
 Delta: O_D= -0.2792973E-05 O_OD=  0.2430130E-05 O_TOT= -0.3628431E-06 <-- DLTA
 ------------------------------------------------------------------------------
 Cycle:     30
  WF centre and spread    1  ( -0.129809,  0.129809,  0.129809 )     3.25987360
  WF centre and spread    2  (  0.129809, -0.129809,  0.129809 )     3.25987360
  WF centre and spread    3  (  0.129809,  0.129809, -0.129809 )     3.25987361
  WF centre and spread    4  ( -0.129809, -0.129809, -0.129809 )     3.25987361
  Sum of centres and spreads (  0.000000, -0.000000, -0.000000 )    13.03949442
 
     30    -0.404E-09     0.0000180582       13.0394944151       0.53  <-- CONV
        O_D=      0.0268952 O_OD=      5.4244241 O_TOT=     13.0394944 <-- SPRD
 Delta: O_D=  0.2719488E-07 O_OD= -0.2759868E-07 O_TOT= -0.4037943E-09 <-- DLTA
 ------------------------------------------------------------------------------
 Cycle:     40
  WF centre and spread    1  ( -0.129809,  0.129809,  0.129809 )     3.25987360
  WF centre and spread    2  (  0.129809, -0.129809,  0.129809 )     3.25987360
  WF centre and spread    3  (  0.129809,  0.129809, -0.129809 )     3.25987361
  WF centre and spread    4  ( -0.129809, -0.129809, -0.129809 )     3.25987361
  Sum of centres and spreads (  0.000000, -0.000000, -0.000000 )    13.03949441
 
     40    -0.118E-11     0.0000066593       13.0394944134       0.76  <-- CONV
        O_D=      0.0268954 O_OD=      5.4244240 O_TOT=     13.0394944 <-- SPRD
 Delta: O_D=  0.5362322E-10 O_OD= -0.5480238E-10 O_TOT= -0.1179501E-11 <-- DLTA
 ------------------------------------------------------------------------------
 Cycle:     50
  WF centre and spread    1  ( -0.129809,  0.129809,  0.129809 )     3.25987360
  WF centre and spread    2  (  0.129809, -0.129809,  0.129809 )     3.25987360
  WF centre and spread    3  (  0.129809,  0.129809, -0.129809 )     3.25987361
  WF centre and spread    4  ( -0.129809, -0.129809, -0.129809 )     3.25987361
  Sum of centres and spreads (  0.000000, -0.000000, -0.000000 )    13.03949441
 
     50    -0.145E-11     0.0000043929       13.0394944133       0.98  <-- CONV
        O_D=      0.0268954 O_OD=      5.4244240 O_TOT=     13.0394944 <-- SPRD
 Delta: O_D=  0.3434195E-10 O_OD= -0.3579270E-10 O_TOT= -0.1451284E-11 <-- DLTA
 ------------------------------------------------------------------------------
 Cycle:     60
  WF centre and spread    1  ( -0.129809,  0.129809,  0.129809 )     3.25987360
  WF centre and spread    2  (  0.129809, -0.129809,  0.129809 )     3.25987360
  WF centre and spread    3  (  0.129809,  0.129809, -0.129809 )     3.25987361
  WF centre and spread    4  ( -0.129809, -0.129809, -0.129809 )     3.25987361
  Sum of centres and spreads (  0.000000, -0.000000, -0.000000 )    13.03949441
 
     60    -0.906E-12     0.0000037507       13.0394944132       1.21  <-- CONV
        O_D=      0.0268954 O_OD=      5.4244240 O_TOT=     13.0394944 <-- SPRD
 Delta: O_D=  0.1494989E-10 O_OD= -0.1585487E-10 O_TOT= -0.9059420E-12 <-- DLTA
 ------------------------------------------------------------------------------
 Cycle:     70
  WF centre and spread    1  ( -0.129809,  0.129809,  0.129809 )     3.25987360
  WF centre and spread    2  (  0.129809, -0.129809,  0.129809 )     3.25987360
  WF centre and spread    3  (  0.129809,  0.129809, -0.129809 )     3.25987361
  WF centre and spread    4  ( -0.129809, -0.129809, -0.129809 )     3.25987361
  Sum of centres and spreads (  0.000000, -0.000000, -0.000000 )    13.03949441
 
     70    -0.376E-11     0.0000033596       13.0394944132       1.51  <-- CONV
        O_D=      0.0268954 O_OD=      5.4244240 O_TOT=     13.0394944 <-- SPRD
 Delta: O_D=  0.1585349E-10 O_OD= -0.1961453E-10 O_TOT= -0.3760547E-11 <-- DLTA
 ------------------------------------------------------------------------------
 Cycle:     80
  WF centre and spread    1  ( -0.129809,  0.129809,  0.129809 )     3.25987360
  WF centre and spread    2  (  0.129809, -0.129809,  0.129809 )     3.25987360
  WF centre and spread    3  (  0.129809,  0.129809, -0.129809 )     3.25987361
  WF centre and spread    4  ( -0.129809, -0.129809, -0.129809 )     3.25987361
  Sum of centres and spreads (  0.000000, -0.000000, -0.000000 )    13.03949441
 
     80    -0.346E-12     0.0000028883       13.0394944132       1.76  <-- CONV
        O_D=      0.0268954 O_OD=      5.4244240 O_TOT=     13.0394944 <-- SPRD
 Delta: O_D= -0.2969965E-11 O_OD=  0.2624567E-11 O_TOT= -0.3463896E-12 <-- DLTA
 ------------------------------------------------------------------------------
 Cycle:     90
  WF centre and spread    1  ( -0.129809,  0.129809,  0.129809 )     3.25987360
  WF centre and spread    2  (  0.129809, -0.129809,  0.129809 )     3.25987360
  WF centre and spread    3  (  0.129809,  0.129809, -0.129809 )     3.25987361
  WF centre and spread    4  ( -0.129809, -0.129809, -0.129809 )     3.25987361
  Sum of centres and spreads (  0.000000, -0.000000, -0.000000 )    13.03949441
 
     90    -0.544E-12     0.0000027995       13.0394944132       2.01  <-- CONV
        O_D=      0.0268954 O_OD=      5.4244240 O_TOT=     13.0394944 <-- SPRD
 Delta: O_D= -0.1010168E-10 O_OD=  0.9558576E-11 O_TOT= -0.5435652E-12 <-- DLTA
 ------------------------------------------------------------------------------
 Cycle:    100
  WF centre and spread    1  ( -0.129809,  0.129809,  0.129809 )     3.25987360
  WF centre and spread    2  (  0.129809, -0.129809,  0.129809 )     3.25987360
  WF centre and spread    3  (  0.129809,  0.129809, -0.129809 )     3.25987361
  WF centre and spread    4  ( -0.129809, -0.129809, -0.129809 )     3.25987361
  Sum of centres and spreads (  0.000000, -0.000000, -0.000000 )    13.03949441
 
    100    -0.309E-12     0.0000027058       13.0394944132       2.24  <-- CONV
        O_D=      0.0268954 O_OD=      5.4244240 O_TOT=     13.0394944 <-- SPRD
 Delta: O_D= -0.8430871E-11 O_OD=  0.8121503E-11 O_TOT= -0.3090861E-12 <-- DLTA
 ------------------------------------------------------------------------------

 Writing checkpoint file si.chk... done

 Cycle:    110
  WF centre and spread    1  ( -0.129809,  0.129809,  0.129809 )     3.25987360
  WF centre and spread    2  (  0.129809, -0.129809,  0.129809 )     3.25987360
  WF centre and spread    3  (  0.129809,  0.129809, -0.129809 )     3.25987361
  WF centre and spread    4  ( -0.129809, -0.129809, -0.129809 )     3.25987361
  Sum of centres and spreads (  0.000000, -0.000000, -0.000000 )    13.03949441
 
    110    -0.277E-12     0.0000023379       13.0394944131       2.51  <-- CONV
        O_D=      0.0268954 O_OD=      5.4244240 O_TOT=     13.0394944 <-- SPRD
 Delta: O_D= -0.1349522E-10 O_OD=  0.1321787E-10 O_TOT= -0.2771117E-12 <-- DLTA
 ------------------------------------------------------------------------------
 Cycle:    120
  WF centre and spread    1  ( -0.129809,  0.129809,  0.129809 )     3.25987360
  WF centre and spread    2  (  0.129809, -0.129809,  0.129809 )     3.25987360
  WF centre and spread    3  (  0.129809,  0.129809, -0.129809 )     3.25987361
  WF centre and spread    4  ( -0.129809, -0.129809, -0.129809 )     3.25987361
  Sum of centres and spreads (  0.000000, -0.000000, -0.000000 )    13.03949441
 
    120    -0.115E-11     0.0000022294       13.0394944131       2.74  <-- CONV
        O_D=      0.0268954 O_OD=      5.4244240 O_TOT=     13.0394944 <-- SPRD
 Delta: O_D= -0.8370047E-10 O_OD=  0.8254464E-10 O_TOT= -0.1154632E-11 <-- DLTA
 ------------------------------------------------------------------------------
 Cycle:    130
  WF centre and spread    1  ( -0.129809,  0.129809,  0.129809 )     3.25987360
  WF centre and spread    2  (  0.129809, -0.129809,  0.129809 )     3.25987360
  WF centre and spread    3  (  0.129809,  0.129809, -0.129809 )     3.25987361
  WF centre and spread    4  ( -0.129809, -0.129809, -0.129809 )     3.25987361
  Sum of centres and spreads (  0.000000, -0.000000, -0.000000 )    13.03949441
 
    130    -0.448E-12     0.0000021220       13.0394944131       2.98  <-- CONV
        O_D=      0.0268954 O_OD=      5.4244240 O_TOT=     13.0394944 <-- SPRD
 Delta: O_D= -0.4119585E-10 O_OD=  0.4074785E-10 O_TOT= -0.4476419E-12 <-- DLTA
 ------------------------------------------------------------------------------
 Cycle:    140
  WF centre and spread    1  ( -0.129809,  0.129809,  0.129809 )     3.25987360
  WF centre and spread    2  (  0.129809, -0.129809,  0.129809 )     3.25987360
  WF centre and spread    3  (  0.129809,  0.129809, -0.129809 )     3.25987361
  WF centre and spread    4  ( -0.129809, -0.129809, -0.129809 )     3.25987361
  Sum of centres and spreads (  0.000000, -0.000000, -0.000000 )    13.03949441
 
    140    -0.462E-13     0.0000020517       13.0394944131       3.21  <-- CONV
        O_D=      0.0268954 O_OD=      5.4244240 O_TOT=     13.0394944 <-- SPRD
 Delta: O_D= -0.3867771E-11 O_OD=  0.3820055E-11 O_TOT= -0.4618528E-13 <-- DLTA
 ------------------------------------------------------------------------------
 Cycle:    150
  WF centre and spread    1  ( -0.129809,  0.129809,  0.129809 )     3.25987360
  WF centre and spread    2  (  0.129809, -0.129809,  0.129809 )     3.25987360
  WF centre and spread    3  (  0.129809,  0.129809, -0.129809 )     3.25987361
  WF centre and spread    4  ( -0.129809, -0.129809, -0.129809 )     3.25987361
  Sum of centres and spreads (  0.000000, -0.000000, -0.000000 )    13.03949441
 
    150    -0.207E-11     0.0000020052       13.0394944131       3.43  <-- CONV
        O_D=      0.0268954 O_OD=      5.4244240 O_TOT=     13.0394944 <-- SPRD
 Delta: O_D= -0.1997812E-09 O_OD=  0.1977138E-09 O_TOT= -0.2067679E-11 <-- DLTA
 ------------------------------------------------------------------------------
 Cycle:    160
  WF centre and spread    1  ( -0.129809,  0.129809,  0.129809 )     3.25987360
  WF centre and spread    2  (  0.129809, -0.129809,  0.129809 )     3.25987360
  WF centre and spread    3  (  0.129809,  0.129809, -0.129809 )     3.25987361
  WF centre and spread    4  ( -0.129809, -0.129809, -0.129809 )     3.25987361
  Sum of centres and spreads (  0.000000, -0.000000, -0.000000 )    13.03949441
 
    160    -0.748E-12     0.0000019139       13.0394944131       3.72  <-- CONV
        O_D=      0.0268954 O_OD=      5.4244240 O_TOT=     13.0394944 <-- SPRD
 Delta: O_D= -0.8185892E-10 O_OD=  0.8111023E-10 O_TOT= -0.7478462E-12 <-- DLTA
 ------------------------------------------------------------------------------
 Cycle:    170
  WF centre and spread    1  ( -0.129809,  0.129809,  0.129809 )     3.25987360
  WF centre and spread    2  (  0.129809, -0.129809,  0.129809 )     3.25987360
  WF centre and spread    3  (  0.129809,  0.129809, -0.129809 )     3.25987361
  WF centre and spread    4  ( -0.129809, -0.129809, -0.129809 )     3.25987361
  Sum of centres and spreads (  0.000000, -0.000000, -0.000000 )    13.03949441
 
    170    -0.941E-13     0.0000018584       13.0394944131       3.94  <-- CONV
        O_D=      0.0268954 O_OD=      5.4244240 O_TOT=     13.0394944 <-- SPRD
 Delta: O_D= -0.8744151E-11 O_OD=  0.8649970E-11 O_TOT= -0.9414691E-13 <-- DLTA
 ------------------------------------------------------------------------------
 Cycle:    180
  WF centre and spread    1  ( -0.129809,  0.129809,  0.129809 )     3.25987360
  WF centre and spread    2  (  0.129809, -0.129809,  0.129809 )     3.25987360
  WF centre and spread    3  (  0.129809,  0.129809, -0.129809 )     3.25987361
  WF centre and spread    4  ( -0.129809, -0.129809, -0.129809 )     3.25987361
  Sum of centres and spreads (  0.000000, -0.000000, -0.000000 )    13.03949441
 
    180    -0.259E-12     0.0000018297       13.0394944131       4.17  <-- CONV
        O_D=      0.0268954 O_OD=      5.4244240 O_TOT=     13.0394944 <-- SPRD
 Delta: O_D= -0.2623059E-10 O_OD=  0.2597123E-10 O_TOT= -0.2593481E-12 <-- DLTA
 ------------------------------------------------------------------------------
 Cycle:    190
  WF centre and spread    1  ( -0.129809,  0.129809,  0.129809 )     3.25987360
  WF centre and spread    2  (  0.129809, -0.129809,  0.129809 )     3.25987360
  WF centre and spread    3  (  0.129809,  0.129809, -0.129809 )     3.25987361
  WF centre and spread    4  ( -0.129809, -0.129809, -0.129809 )     3.25987361
  Sum of centres and spreads (  0.000000, -0.000000, -0.000000 )    13.03949441
 
    190    -0.325E-12     0.0000018069       13.0394944131       4.42  <-- CONV
        O_D=      0.0268954 O_OD=      5.4244240 O_TOT=     13.0394944 <-- SPRD
 Delta: O_D= -0.5433207E-10 O_OD=  0.5400569E-10 O_TOT= -0.3250733E-12 <-- DLTA
 ------------------------------------------------------------------------------
 Cycle:    200
  WF centre and spread    1  ( -0.129809,  0.129809,  0.129809 )     3.25987360
  WF centre and spread    2  (  0.129809, -0.129809,  0.129809 )     3.25987360
  WF centre and spread    3  (  0.129809,  0.129809, -0.129809 )     3.25987361
  WF centre and spread    4  ( -0.129809, -0.129809, -0.129809 )     3.25987361
  Sum of centres and spreads (  0.000000, -0.000000, -0.000000 )    13.03949441
 
    200    -0.153E-12     0.0000017427       13.0394944131       4.64  <-- CONV
        O_D=      0.0268954 O_OD=      5.4244240 O_TOT=     13.0394944 <-- SPRD
 Delta: O_D= -0.9059042E-11 O_OD=  0.8906653E-11 O_TOT= -0.1527667E-12 <-- DLTA
 ------------------------------------------------------------------------------

 Writing checkpoint file si.chk... done

 Cycle:    210
  WF centre and spread    1  ( -0.129809,  0.129809,  0.129809 )     3.25987360
  WF centre and spread    2  (  0.129809, -0.129809,  0.129809 )     3.25987360
  WF centre and spread    3  (  0.129809,  0.129809, -0.129809 )     3.25987361
  WF centre and spread    4  ( -0.129809, -0.129809, -0.129809 )     3.25987361
  Sum of centres and spreads (  0.000000, -0.000000, -0.000000 )    13.03949441
 
    210    -0.377E-12     0.0000017039       13.0394944131       4.89  <-- CONV
        O_D=      0.0268954 O_OD=      5.4244240 O_TOT=     13.0394944 <-- SPRD
 Delta: O_D= -0.6585690E-10 O_OD=  0.6548095E-10 O_TOT= -0.3765876E-12 <-- DLTA
 ------------------------------------------------------------------------------
 Cycle:    220
  WF centre and spread    1  ( -0.129809,  0.129809,  0.129809 )     3.25987360
  WF centre and spread    2  (  0.129809, -0.129809,  0.129809 )     3.25987360
  WF centre and spread    3  (  0.129809,  0.129809, -0.129809 )     3.25987361
  WF centre and spread    4  ( -0.129809, -0.129809, -0.129809 )     3.25987361
  Sum of centres and spreads (  0.000000, -0.000000, -0.000000 )    13.03949441
 
    220    -0.192E-12     0.0000016760       13.0394944131       5.10  <-- CONV
        O_D=      0.0268954 O_OD=      5.4244240 O_TOT=     13.0394944 <-- SPRD
 Delta: O_D= -0.2689746E-10 O_OD=  0.2670486E-10 O_TOT= -0.1918465E-12 <-- DLTA
 ------------------------------------------------------------------------------
 Cycle:    230
  WF centre and spread    1  ( -0.129809,  0.129809,  0.129809 )     3.25987360
  WF centre and spread    2  (  0.129809, -0.129809,  0.129809 )     3.25987360
  WF centre and spread    3  (  0.129809,  0.129809, -0.129809 )     3.25987361
  WF centre and spread    4  ( -0.129809, -0.129809, -0.129809 )     3.25987361
  Sum of centres and spreads (  0.000000, -0.000000, -0.000000 )    13.03949441
 
    230     0.799E-13     0.0000015966       13.0394944131       5.34  <-- CONV
        O_D=      0.0268954 O_OD=      5.4244240 O_TOT=     13.0394944 <-- SPRD
 Delta: O_D= -0.2766815E-11 O_OD=  0.2845724E-11 O_TOT=  0.7993606E-13 <-- DLTA
 ------------------------------------------------------------------------------
 Cycle:    240
  WF centre and spread    1  ( -0.129809,  0.129809,  0.129809 )     3.25987360
  WF centre and spread    2  (  0.129809, -0.129809,  0.129809 )     3.25987360
  WF centre and spread    3  (  0.129809,  0.129809, -0.129809 )     3.25987361
  WF centre and spread    4  ( -0.129809, -0.129809, -0.129809 )     3.25987361
  Sum of centres and spreads (  0.000000, -0.000000, -0.000000 )    13.03949441
 
    240    -0.197E-12     0.0000015755       13.0394944131       5.50  <-- CONV
        O_D=      0.0268954 O_OD=      5.4244240 O_TOT=     13.0394944 <-- SPRD
 Delta: O_D= -0.2797860E-10 O_OD=  0.2778133E-10 O_TOT= -0.1971756E-12 <-- DLTA
 ------------------------------------------------------------------------------
 Cycle:    250
  WF centre and spread    1  ( -0.129809,  0.129809,  0.129809 )     3.25987360
  WF centre and spread    2  (  0.129809, -0.129809,  0.129809 )     3.25987360
  WF centre and spread    3  (  0.129809,  0.129809, -0.129809 )     3.25987361
  WF centre and spread    4  ( -0.129809, -0.129809, -0.129809 )     3.25987361
  Sum of centres and spreads (  0.000000, -0.000000, -0.000000 )    13.03949441
 
    250    -0.167E-12     0.0000015461       13.0394944131       5.73  <-- CONV
        O_D=      0.0268954 O_OD=      5.4244240 O_TOT=     13.0394944 <-- SPRD
 Delta: O_D= -0.2338131E-10 O_OD=  0.2321610E-10 O_TOT= -0.1669775E-12 <-- DLTA
 ------------------------------------------------------------------------------
 Cycle:    260
  WF centre and spread    1  ( -0.129809,  0.129809,  0.129809 )     3.25987360
  WF centre and spread    2  (  0.129809, -0.129809,  0.129809 )     3.25987360
  WF centre and spread    3  (  0.129809,  0.129809, -0.129809 )     3.25987361
  WF centre and spread    4  ( -0.129809, -0.129809, -0.129809 )     3.25987361
  Sum of centres and spreads (  0.000000, -0.000000, -0.000000 )    13.03949441
 
    260    -0.320E-13     0.0000015151       13.0394944131       5.95  <-- CONV
        O_D=      0.0268954 O_OD=      5.4244240 O_TOT=     13.0394944 <-- SPRD
 Delta: O_D= -0.5541633E-11 O_OD=  0.5511147E-11 O_TOT= -0.3197442E-13 <-- DLTA
 ------------------------------------------------------------------------------
 Cycle:    270
  WF centre and spread    1  ( -0.129809,  0.129809,  0.129809 )     3.25987360
  WF centre and spread    2  (  0.129809, -0.129809,  0.129809 )     3.25987360
  WF centre and spread    3  (  0.129809,  0.129809, -0.129809 )     3.25987361
  WF centre and spread    4  ( -0.129809, -0.129809, -0.129809 )     3.25987361
  Sum of centres and spreads (  0.000000, -0.000000, -0.000000 )    13.03949441
 
    270    -0.160E-12     0.0000014607       13.0394944131       6.13  <-- CONV
        O_D=      0.0268954 O_OD=      5.4244240 O_TOT=     13.0394944 <-- SPRD
 Delta: O_D= -0.2818147E-10 O_OD=  0.2802114E-10 O_TOT= -0.1598721E-12 <-- DLTA
 ------------------------------------------------------------------------------
 Cycle:    280
  WF centre and spread    1  ( -0.129809,  0.129809,  0.129809 )     3.25987360
  WF centre and spread    2  (  0.129809, -0.129809,  0.129809 )     3.25987360
  WF centre and spread    3  (  0.129809,  0.129809, -0.129809 )     3.25987361
  WF centre and spread    4  ( -0.129809, -0.129809, -0.129809 )     3.25987361
  Sum of centres and spreads (  0.000000, -0.000000, -0.000000 )    13.03949441
 
    280    -0.153E-12     0.0000014303       13.0394944131       6.27  <-- CONV
        O_D=      0.0268954 O_OD=      5.4244240 O_TOT=     13.0394944 <-- SPRD
 Delta: O_D= -0.1902062E-10 O_OD=  0.1886846E-10 O_TOT= -0.1527667E-12 <-- DLTA
 ------------------------------------------------------------------------------
 Cycle:    290
  WF centre and spread    1  ( -0.129809,  0.129809,  0.129809 )     3.25987360
  WF centre and spread    2  (  0.129809, -0.129809,  0.129809 )     3.25987360
  WF centre and spread    3  (  0.129809,  0.129809, -0.129809 )     3.25987361
  WF centre and spread    4  ( -0.129809, -0.129809, -0.129809 )     3.25987361
  Sum of centres and spreads (  0.000000, -0.000000, -0.000000 )    13.03949441
 
    290    -0.657E-13     0.0000013994       13.0394944131       6.44  <-- CONV
        O_D=      0.0268954 O_OD=      5.4244240 O_TOT=     13.0394944 <-- SPRD
 Delta: O_D= -0.9541905E-11 O_OD=  0.9475976E-11 O_TOT= -0.6572520E-13 <-- DLTA
 ------------------------------------------------------------------------------
 Cycle:    300
  WF centre and spread    1  ( -0.129809,  0.129809,  0.129809 )     3.25987360
  WF centre and spread    2  (  0.129809, -0.129809,  0.129809 )     3.25987360
  WF centre and spread    3  (  0.129809,  0.129809, -0.129809 )     3.25987361
  WF centre and spread    4  ( -0.129809, -0.129809, -0.129809 )     3.25987361
  Sum of centres and spreads (  0.000000, -0.000000, -0.000000 )    13.03949441
 
    300    -0.130E-12     0.0000013800       13.0394944131       6.64  <-- CONV
        O_D=      0.0268954 O_OD=      5.4244240 O_TOT=     13.0394944 <-- SPRD
 Delta: O_D= -0.2840526E-10 O_OD=  0.2827427E-10 O_TOT= -0.1296740E-12 <-- DLTA
 ------------------------------------------------------------------------------

 Writing checkpoint file si.chk... done

 Cycle:    310
  WF centre and spread    1  ( -0.129809,  0.129809,  0.129809 )     3.25987360
  WF centre and spread    2  (  0.129809, -0.129809,  0.129809 )     3.25987360
  WF centre and spread    3  (  0.129809,  0.129809, -0.129809 )     3.25987361
  WF centre and spread    4  ( -0.129809, -0.129809, -0.129809 )     3.25987361
  Sum of centres and spreads (  0.000000, -0.000000, -0.000000 )    13.03949441
 
    310     0.105E-12     0.0000013625       13.0394944131       6.80  <-- CONV
        O_D=      0.0268954 O_OD=      5.4244240 O_TOT=     13.0394944 <-- SPRD
 Delta: O_D= -0.9968068E-11 O_OD=  0.1007283E-10 O_TOT=  0.1048051E-12 <-- DLTA
 ------------------------------------------------------------------------------
 Cycle:    320
  WF centre and spread    1  ( -0.129809,  0.129809,  0.129809 )     3.25987360
  WF centre and spread    2  (  0.129809, -0.129809,  0.129809 )     3.25987360
  WF centre and spread    3  (  0.129809,  0.129809, -0.129809 )     3.25987361
  WF centre and spread    4  ( -0.129809, -0.129809, -0.129809 )     3.25987361
  Sum of centres and spreads (  0.000000, -0.000000, -0.000000 )    13.03949441
 
    320    -0.107E-12     0.0000013404       13.0394944131       6.95  <-- CONV
        O_D=      0.0268954 O_OD=      5.4244240 O_TOT=     13.0394944 <-- SPRD
 Delta: O_D= -0.9542304E-11 O_OD=  0.9436008E-11 O_TOT= -0.1065814E-12 <-- DLTA
 ------------------------------------------------------------------------------
 Cycle:    330
  WF centre and spread    1  ( -0.129809,  0.129809,  0.129809 )     3.25987360
  WF centre and spread    2  (  0.129809, -0.129809,  0.129809 )     3.25987360
  WF centre and spread    3  (  0.129809,  0.129809, -0.129809 )     3.25987361
  WF centre and spread    4  ( -0.129809, -0.129809, -0.129809 )     3.25987361
  Sum of centres and spreads (  0.000000, -0.000000, -0.000000 )    13.03949441
 
    330     0.355E-13     0.0000013179       13.0394944131       7.14  <-- CONV
        O_D=      0.0268954 O_OD=      5.4244240 O_TOT=     13.0394944 <-- SPRD
 Delta: O_D= -0.1060070E-10 O_OD=  0.1063594E-10 O_TOT=  0.3552714E-13 <-- DLTA
 ------------------------------------------------------------------------------
 Cycle:    340
  WF centre and spread    1  ( -0.129809,  0.129809,  0.129809 )     3.25987360
  WF centre and spread    2  (  0.129809, -0.129809,  0.129809 )     3.25987360
  WF centre and spread    3  (  0.129809,  0.129809, -0.129809 )     3.25987361
  WF centre and spread    4  ( -0.129809, -0.129809, -0.129809 )     3.25987361
  Sum of centres and spreads (  0.000000, -0.000000, -0.000000 )    13.03949441
 
    340    -0.728E-13     0.0000013016       13.0394944131       7.34  <-- CONV
        O_D=      0.0268954 O_OD=      5.4244240 O_TOT=     13.0394944 <-- SPRD
 Delta: O_D= -0.1897084E-10 O_OD=  0.1889866E-10 O_TOT= -0.7283063E-13 <-- DLTA
 ------------------------------------------------------------------------------
 Cycle:    350
  WF centre and spread    1  ( -0.129809,  0.129809,  0.129809 )     3.25987360
  WF centre and spread    2  (  0.129809, -0.129809,  0.129809 )     3.25987360
  WF centre and spread    3  (  0.129809,  0.129809, -0.129809 )     3.25987361
  WF centre and spread    4  ( -0.129809, -0.129809, -0.129809 )     3.25987361
  Sum of centres and spreads (  0.000000, -0.000000, -0.000000 )    13.03949441
 
    350    -0.121E-12     0.0000012821       13.0394944131       7.53  <-- CONV
        O_D=      0.0268954 O_OD=      5.4244240 O_TOT=     13.0394944 <-- SPRD
 Delta: O_D= -0.1670470E-10 O_OD=  0.1658496E-10 O_TOT= -0.1207923E-12 <-- DLTA
 ------------------------------------------------------------------------------
 Cycle:    360
  WF centre and spread    1  ( -0.129809,  0.129809,  0.129809 )     3.25987360
  WF centre and spread    2  (  0.129809, -0.129809,  0.129809 )     3.25987360
  WF centre and spread    3  (  0.129809,  0.129809, -0.129809 )     3.25987361
  WF centre and spread    4  ( -0.129809, -0.129809, -0.129809 )     3.25987361
  Sum of centres and spreads (  0.000000, -0.000000, -0.000000 )    13.03949441
 
    360    -0.604E-13     0.0000012647       13.0394944131       7.67  <-- CONV
        O_D=      0.0268954 O_OD=      5.4244240 O_TOT=     13.0394944 <-- SPRD
 Delta: O_D= -0.1582045E-10 O_OD=  0.1576073E-10 O_TOT= -0.6039613E-13 <-- DLTA
 ------------------------------------------------------------------------------
 Cycle:    370
  WF centre and spread    1  ( -0.129809,  0.129809,  0.129809 )     3.25987360
  WF centre and spread    2  (  0.129809, -0.129809,  0.129809 )     3.25987360
  WF centre and spread    3  (  0.129809,  0.129809, -0.129809 )     3.25987361
  WF centre and spread    4  ( -0.129809, -0.129809, -0.129809 )     3.25987361
  Sum of centres and spreads (  0.000000, -0.000000, -0.000000 )    13.03949441
 
    370     0.888E-13     0.0000012380       13.0394944131       7.84  <-- CONV
        O_D=      0.0268954 O_OD=      5.4244240 O_TOT=     13.0394944 <-- SPRD
 Delta: O_D= -0.8945161E-11 O_OD=  0.9033663E-11 O_TOT=  0.8881784E-13 <-- DLTA
 ------------------------------------------------------------------------------
 Cycle:    380
  WF centre and spread    1  ( -0.129809,  0.129809,  0.129809 )     3.25987360
  WF centre and spread    2  (  0.129809, -0.129809,  0.129809 )     3.25987360
  WF centre and spread    3  (  0.129809,  0.129809, -0.129809 )     3.25987361
  WF centre and spread    4  ( -0.129809, -0.129809, -0.129809 )     3.25987361
  Sum of centres and spreads (  0.000000, -0.000000, -0.000000 )    13.03949441
 
    380    -0.147E-12     0.0000012042       13.0394944131       8.00  <-- CONV
        O_D=      0.0268954 O_OD=      5.4244240 O_TOT=     13.0394944 <-- SPRD
 Delta: O_D= -0.9445524E-11 O_OD=  0.9297452E-11 O_TOT= -0.1474376E-12 <-- DLTA
 ------------------------------------------------------------------------------
 Cycle:    390
  WF centre and spread    1  ( -0.129809,  0.129809,  0.129809 )     3.25987360
  WF centre and spread    2  (  0.129809, -0.129809,  0.129809 )     3.25987360
  WF centre and spread    3  (  0.129809,  0.129809, -0.129809 )     3.25987361
  WF centre and spread    4  ( -0.129809, -0.129809, -0.129809 )     3.25987361
  Sum of centres and spreads (  0.000000, -0.000000, -0.000000 )    13.03949441
 
    390     0.426E-13     0.0000011905       13.0394944131       8.15  <-- CONV
        O_D=      0.0268954 O_OD=      5.4244240 O_TOT=     13.0394944 <-- SPRD
 Delta: O_D= -0.1948521E-10 O_OD=  0.1952749E-10 O_TOT=  0.4263256E-13 <-- DLTA
 ------------------------------------------------------------------------------
 Cycle:    400
  WF centre and spread    1  ( -0.129809,  0.129809,  0.129809 )     3.25987360
  WF centre and spread    2  (  0.129809, -0.129809,  0.129809 )     3.25987360
  WF centre and spread    3  (  0.129809,  0.129809, -0.129809 )     3.25987361
  WF centre and spread    4  ( -0.129809, -0.129809, -0.129809 )     3.25987361
  Sum of centres and spreads (  0.000000, -0.000000, -0.000000 )    13.03949441
 
    400    -0.675E-13     0.0000011771       13.0394944131       8.29  <-- CONV
        O_D=      0.0268954 O_OD=      5.4244240 O_TOT=     13.0394944 <-- SPRD
 Delta: O_D= -0.1879486E-10 O_OD=  0.1872724E-10 O_TOT= -0.6750156E-13 <-- DLTA
 ------------------------------------------------------------------------------

 Writing checkpoint file si.chk... done

 Cycle:    410
  WF centre and spread    1  ( -0.129809,  0.129809,  0.129809 )     3.25987360
  WF centre and spread    2  (  0.129809, -0.129809,  0.129809 )     3.25987360
  WF centre and spread    3  (  0.129809,  0.129809, -0.129809 )     3.25987361
  WF centre and spread    4  ( -0.129809, -0.129809, -0.129809 )     3.25987361
  Sum of centres and spreads (  0.000000, -0.000000, -0.000000 )    13.03949441
 
    410    -0.338E-13     0.0000011402       13.0394944131       8.43  <-- CONV
        O_D=      0.0268954 O_OD=      5.4244240 O_TOT=     13.0394944 <-- SPRD
 Delta: O_D= -0.9349025E-11 O_OD=  0.9315215E-11 O_TOT= -0.3375078E-13 <-- DLTA
 ------------------------------------------------------------------------------
 Cycle:    420
  WF centre and spread    1  ( -0.129809,  0.129809,  0.129809 )     3.25987360
  WF centre and spread    2  (  0.129809, -0.129809,  0.129809 )     3.25987360
  WF centre and spread    3  (  0.129809,  0.129809, -0.129809 )     3.25987361
  WF centre and spread    4  ( -0.129809, -0.129809, -0.129809 )     3.25987361
  Sum of centres and spreads (  0.000000, -0.000000, -0.000000 )    13.03949441
 
    420    -0.817E-13     0.0000011244       13.0394944131       8.57  <-- CONV
        O_D=      0.0268954 O_OD=      5.4244240 O_TOT=     13.0394944 <-- SPRD
 Delta: O_D= -0.2777480E-10 O_OD=  0.2769429E-10 O_TOT= -0.8171241E-13 <-- DLTA
 ------------------------------------------------------------------------------
 Cycle:    430
  WF centre and spread    1  ( -0.129809,  0.129809,  0.129809 )     3.25987360
  WF centre and spread    2  (  0.129809, -0.129809,  0.129809 )     3.25987360
  WF centre and spread    3  (  0.129809,  0.129809, -0.129809 )     3.25987361
  WF centre and spread    4  ( -0.129809, -0.129809, -0.129809 )     3.25987361
  Sum of centres and spreads (  0.000000, -0.000000, -0.000000 )    13.03949441
 
    430    -0.142E-12     0.0000011098       13.0394944131       8.71  <-- CONV
        O_D=      0.0268954 O_OD=      5.4244240 O_TOT=     13.0394944 <-- SPRD
 Delta: O_D= -0.1855519E-10 O_OD=  0.1841194E-10 O_TOT= -0.1421085E-12 <-- DLTA
 ------------------------------------------------------------------------------
 Cycle:    440
  WF centre and spread    1  ( -0.129809,  0.129809,  0.129809 )     3.25987360
  WF centre and spread    2  (  0.129809, -0.129809,  0.129809 )     3.25987360
  WF centre and spread    3  (  0.129809,  0.129809, -0.129809 )     3.25987361
  WF centre and spread    4  ( -0.129809, -0.129809, -0.129809 )     3.25987361
  Sum of centres and spreads (  0.000000, -0.000000, -0.000000 )    13.03949441
 
    440     0.178E-12     0.0000010948       13.0394944131       8.87  <-- CONV
        O_D=      0.0268954 O_OD=      5.4244240 O_TOT=     13.0394944 <-- SPRD
 Delta: O_D= -0.6434478E-11 O_OD=  0.6612488E-11 O_TOT=  0.1776357E-12 <-- DLTA
 ------------------------------------------------------------------------------
 Cycle:    450
  WF centre and spread    1  ( -0.129809,  0.129809,  0.129809 )     3.25987360
  WF centre and spread    2  (  0.129809, -0.129809,  0.129809 )     3.25987360
  WF centre and spread    3  (  0.129809,  0.129809, -0.129809 )     3.25987361
  WF centre and spread    4  ( -0.129809, -0.129809, -0.129809 )     3.25987361
  Sum of centres and spreads (  0.000000, -0.000000, -0.000000 )    13.03949441
 
    450    -0.817E-13     0.0000010813       13.0394944131       9.00  <-- CONV
        O_D=      0.0268954 O_OD=      5.4244240 O_TOT=     13.0394944 <-- SPRD
 Delta: O_D= -0.2753430E-10 O_OD=  0.2745448E-10 O_TOT= -0.8171241E-13 <-- DLTA
 ------------------------------------------------------------------------------
 Cycle:    460
  WF centre and spread    1  ( -0.129809,  0.129809,  0.129809 )     3.25987360
  WF centre and spread    2  (  0.129809, -0.129809,  0.129809 )     3.25987360
  WF centre and spread    3  (  0.129809,  0.129809, -0.129809 )     3.25987361
  WF centre and spread    4  ( -0.129809, -0.129809, -0.129809 )     3.25987361
  Sum of centres and spreads (  0.000000, -0.000000, -0.000000 )    13.03949441
 
    460    -0.586E-13     0.0000010681       13.0394944131       9.12  <-- CONV
        O_D=      0.0268954 O_OD=      5.4244240 O_TOT=     13.0394944 <-- SPRD
 Delta: O_D= -0.1836125E-10 O_OD=  0.1830269E-10 O_TOT= -0.5861978E-13 <-- DLTA
 ------------------------------------------------------------------------------
 Cycle:    470
  WF centre and spread    1  ( -0.129809,  0.129809,  0.129809 )     3.25987360
  WF centre and spread    2  (  0.129809, -0.129809,  0.129809 )     3.25987360
  WF centre and spread    3  (  0.129809,  0.129809, -0.129809 )     3.25987361
  WF centre and spread    4  ( -0.129809, -0.129809, -0.129809 )     3.25987361
  Sum of centres and spreads (  0.000000, -0.000000, -0.000000 )    13.03949441
 
    470     0.391E-13     0.0000010500       13.0394944131       9.27  <-- CONV
        O_D=      0.0268954 O_OD=      5.4244240 O_TOT=     13.0394944 <-- SPRD
 Delta: O_D= -0.4254905E-11 O_OD=  0.4293454E-11 O_TOT=  0.3907985E-13 <-- DLTA
 ------------------------------------------------------------------------------
 Cycle:    480
  WF centre and spread    1  ( -0.129809,  0.129809,  0.129809 )     3.25987360
  WF centre and spread    2  (  0.129809, -0.129809,  0.129809 )     3.25987360
  WF centre and spread    3  (  0.129809,  0.129809, -0.129809 )     3.25987361
  WF centre and spread    4  ( -0.129809, -0.129809, -0.129809 )     3.25987361
  Sum of centres and spreads (  0.000000, -0.000000, -0.000000 )    13.03949441
 
    480    -0.121E-12     0.0000010362       13.0394944131       9.39  <-- CONV
        O_D=      0.0268954 O_OD=      5.4244240 O_TOT=     13.0394944 <-- SPRD
 Delta: O_D= -0.2720074E-10 O_OD=  0.2707878E-10 O_TOT= -0.1207923E-12 <-- DLTA
 ------------------------------------------------------------------------------
 Cycle:    490
  WF centre and spread    1  ( -0.129809,  0.129809,  0.129809 )     3.25987360
  WF centre and spread    2  (  0.129809, -0.129809,  0.129809 )     3.25987360
  WF centre and spread    3  (  0.129809,  0.129809, -0.129809 )     3.25987361
  WF centre and spread    4  ( -0.129809, -0.129809, -0.129809 )     3.25987361
  Sum of centres and spreads (  0.000000, -0.000000, -0.000000 )    13.03949441
 
    490    -0.211E-12     0.0000010254       13.0394944131       9.55  <-- CONV
        O_D=      0.0268954 O_OD=      5.4244240 O_TOT=     13.0394944 <-- SPRD
 Delta: O_D= -0.1119778E-09 O_OD=  0.1117657E-09 O_TOT= -0.2113865E-12 <-- DLTA
 ------------------------------------------------------------------------------
 Cycle:    500
  WF centre and spread    1  ( -0.129809,  0.129809,  0.129809 )     3.25987360
  WF centre and spread    2  (  0.129809, -0.129809,  0.129809 )     3.25987360
  WF centre and spread    3  (  0.129809,  0.129809, -0.129809 )     3.25987361
  WF centre and spread    4  ( -0.129809, -0.129809, -0.129809 )     3.25987361
  Sum of centres and spreads (  0.000000, -0.000000, -0.000000 )    13.03949441
 
    500     0.108E-12     0.0000010025       13.0394944131       9.70  <-- CONV
        O_D=      0.0268954 O_OD=      5.4244240 O_TOT=     13.0394944 <-- SPRD
 Delta: O_D= -0.1502153E-11 O_OD=  0.1611156E-11 O_TOT=  0.1083578E-12 <-- DLTA
 ------------------------------------------------------------------------------

 Writing checkpoint file si.chk... done

 Cycle:    510
  WF centre and spread    1  ( -0.129809,  0.129809,  0.129809 )     3.25987360
  WF centre and spread    2  (  0.129809, -0.129809,  0.129809 )     3.25987360
  WF centre and spread    3  (  0.129809,  0.129809, -0.129809 )     3.25987361
  WF centre and spread    4  ( -0.129809, -0.129809, -0.129809 )     3.25987361
  Sum of centres and spreads (  0.000000, -0.000000, -0.000000 )    13.03949441
 
    510    -0.137E-12     0.0000009830       13.0394944131       9.85  <-- CONV
        O_D=      0.0268954 O_OD=      5.4244240 O_TOT=     13.0394944 <-- SPRD
 Delta: O_D= -0.2677081E-10 O_OD=  0.2663381E-10 O_TOT= -0.1367795E-12 <-- DLTA
 ------------------------------------------------------------------------------
 Cycle:    520
  WF centre and spread    1  ( -0.129809,  0.129809,  0.129809 )     3.25987360
  WF centre and spread    2  (  0.129809, -0.129809,  0.129809 )     3.25987360
  WF centre and spread    3  (  0.129809,  0.129809, -0.129809 )     3.25987361
  WF centre and spread    4  ( -0.129809, -0.129809, -0.129809 )     3.25987361
  Sum of centres and spreads (  0.000000, -0.000000, -0.000000 )    13.03949441
 
    520     0.657E-13     0.0000009708       13.0394944131       9.98  <-- CONV
        O_D=      0.0268954 O_OD=      5.4244240 O_TOT=     13.0394944 <-- SPRD
 Delta: O_D= -0.7033218E-11 O_OD=  0.7097434E-11 O_TOT=  0.6572520E-13 <-- DLTA
 ------------------------------------------------------------------------------
 Cycle:    530
  WF centre and spread    1  ( -0.129809,  0.129809,  0.129809 )     3.25987360
  WF centre and spread    2  (  0.129809, -0.129809,  0.129809 )     3.25987360
  WF centre and spread    3  (  0.129809,  0.129809, -0.129809 )     3.25987361
  WF centre and spread    4  ( -0.129809, -0.129809, -0.129809 )     3.25987361
  Sum of centres and spreads (  0.000000, -0.000000, -0.000000 )    13.03949441
 
    530    -0.355E-14     0.0000009532       13.0394944131      10.13  <-- CONV
        O_D=      0.0268954 O_OD=      5.4244240 O_TOT=     13.0394944 <-- SPRD
 Delta: O_D= -0.2304771E-11 O_OD=  0.2302158E-11 O_TOT= -0.3552714E-14 <-- DLTA
 ------------------------------------------------------------------------------
 Cycle:    540
  WF centre and spread    1  ( -0.129809,  0.129809,  0.129809 )     3.25987360
  WF centre and spread    2  (  0.129809, -0.129809,  0.129809 )     3.25987360
  WF centre and spread    3  (  0.129809,  0.129809, -0.129809 )     3.25987361
  WF centre and spread    4  ( -0.129809, -0.129809, -0.129809 )     3.25987361
  Sum of centres and spreads (  0.000000, -0.000000, -0.000000 )    13.03949441
 
    540    -0.160E-12     0.0000009445       13.0394944131      10.27  <-- CONV
        O_D=      0.0268954 O_OD=      5.4244240 O_TOT=     13.0394944 <-- SPRD
 Delta: O_D= -0.1627419E-10 O_OD=  0.1611422E-10 O_TOT= -0.1598721E-12 <-- DLTA
 ------------------------------------------------------------------------------
 Cycle:    550
  WF centre and spread    1  ( -0.129809,  0.129809,  0.129809 )     3.25987360
  WF centre and spread    2  (  0.129809, -0.129809,  0.129809 )     3.25987360
  WF centre and spread    3  (  0.129809,  0.129809, -0.129809 )     3.25987361
  WF centre and spread    4  ( -0.129809, -0.129809, -0.129809 )     3.25987361
  Sum of centres and spreads (  0.000000, -0.000000, -0.000000 )    13.03949441
 
    550     0.302E-13     0.0000009330       13.0394944131      10.42  <-- CONV
        O_D=      0.0268954 O_OD=      5.4244240 O_TOT=     13.0394944 <-- SPRD
 Delta: O_D= -0.5394369E-11 O_OD=  0.5423217E-11 O_TOT=  0.3019807E-13 <-- DLTA
 ------------------------------------------------------------------------------
 Cycle:    560
  WF centre and spread    1  ( -0.129809,  0.129809,  0.129809 )     3.25987360
  WF centre and spread    2  (  0.129809, -0.129809,  0.129809 )     3.25987360
  WF centre and spread    3  (  0.129809,  0.129809, -0.129809 )     3.25987361
  WF centre and spread    4  ( -0.129809, -0.129809, -0.129809 )     3.25987361
  Sum of centres and spreads (  0.000000, -0.000000, -0.000000 )    13.03949441
 
    560    -0.195E-13     0.0000009231       13.0394944131      10.60  <-- CONV
        O_D=      0.0268954 O_OD=      5.4244240 O_TOT=     13.0394944 <-- SPRD
 Delta: O_D= -0.2934448E-11 O_OD=  0.2915002E-11 O_TOT= -0.1953993E-13 <-- DLTA
 ------------------------------------------------------------------------------
 Cycle:    570
  WF centre and spread    1  ( -0.129809,  0.129809,  0.129809 )     3.25987360
  WF centre and spread    2  (  0.129809, -0.129809,  0.129809 )     3.25987360
  WF centre and spread    3  (  0.129809,  0.129809, -0.129809 )     3.25987361
  WF centre and spread    4  ( -0.129809, -0.129809, -0.129809 )     3.25987361
  Sum of centres and spreads (  0.000000, -0.000000, -0.000000 )    13.03949441
 
    570    -0.139E-12     0.0000009163       13.0394944131      10.78  <-- CONV
        O_D=      0.0268954 O_OD=      5.4244240 O_TOT=     13.0394944 <-- SPRD
 Delta: O_D= -0.2611366E-10 O_OD=  0.2597567E-10 O_TOT= -0.1385558E-12 <-- DLTA
 ------------------------------------------------------------------------------
 Cycle:    580
  WF centre and spread    1  ( -0.129809,  0.129809,  0.129809 )     3.25987360
  WF centre and spread    2  (  0.129809, -0.129809,  0.129809 )     3.25987360
  WF centre and spread    3  (  0.129809,  0.129809, -0.129809 )     3.25987361
  WF centre and spread    4  ( -0.129809, -0.129809, -0.129809 )     3.25987361
  Sum of centres and spreads (  0.000000, -0.000000, -0.000000 )    13.03949441
 
    580    -0.622E-13     0.0000009064       13.0394944131      10.95  <-- CONV
        O_D=      0.0268954 O_OD=      5.4244240 O_TOT=     13.0394944 <-- SPRD
 Delta: O_D= -0.1777617E-10 O_OD=  0.1771383E-10 O_TOT= -0.6217249E-13 <-- DLTA
 ------------------------------------------------------------------------------
 Cycle:    590
  WF centre and spread    1  ( -0.129809,  0.129809,  0.129809 )     3.25987360
  WF centre and spread    2  (  0.129809, -0.129809,  0.129809 )     3.25987360
  WF centre and spread    3  (  0.129809,  0.129809, -0.129809 )     3.25987361
  WF centre and spread    4  ( -0.129809, -0.129809, -0.129809 )     3.25987361
  Sum of centres and spreads (  0.000000, -0.000000, -0.000000 )    13.03949441
 
    590     0.355E-13     0.0000008964       13.0394944131      11.12  <-- CONV
        O_D=      0.0268954 O_OD=      5.4244240 O_TOT=     13.0394944 <-- SPRD
 Delta: O_D= -0.5474756E-11 O_OD=  0.5512035E-11 O_TOT=  0.3552714E-13 <-- DLTA
 ------------------------------------------------------------------------------
 Cycle:    600
  WF centre and spread    1  ( -0.129809,  0.129809,  0.129809 )     3.25987360
  WF centre and spread    2  (  0.129809, -0.129809,  0.129809 )     3.25987360
  WF centre and spread    3  (  0.129809,  0.129809, -0.129809 )     3.25987361
  WF centre and spread    4  ( -0.129809, -0.129809, -0.129809 )     3.25987361
  Sum of centres and spreads (  0.000000, -0.000000, -0.000000 )    13.03949441
 
    600    -0.586E-13     0.0000008859       13.0394944131      11.27  <-- CONV
        O_D=      0.0268954 O_OD=      5.4244240 O_TOT=     13.0394944 <-- SPRD
 Delta: O_D= -0.7257801E-10 O_OD=  0.7251888E-10 O_TOT= -0.5861978E-13 <-- DLTA
 ------------------------------------------------------------------------------

 Writing checkpoint file si.chk... done

 Cycle:    610
  WF centre and spread    1  ( -0.129809,  0.129809,  0.129809 )     3.25987360
  WF centre and spread    2  (  0.129809, -0.129809,  0.129809 )     3.25987360
  WF centre and spread    3  (  0.129809,  0.129809, -0.129809 )     3.25987361
  WF centre and spread    4  ( -0.129809, -0.129809, -0.129809 )     3.25987361
  Sum of centres and spreads (  0.000000, -0.000000, -0.000000 )    13.03949441
 
    610    -0.178E-13     0.0000008710       13.0394944131      11.42  <-- CONV
        O_D=      0.0268954 O_OD=      5.4244240 O_TOT=     13.0394944 <-- SPRD
 Delta: O_D= -0.8538364E-11 O_OD=  0.8520296E-11 O_TOT= -0.1776357E-13 <-- DLTA
 ------------------------------------------------------------------------------
 Cycle:    620
  WF centre and spread    1  ( -0.129809,  0.129809,  0.129809 )     3.25987360
  WF centre and spread    2  (  0.129809, -0.129809,  0.129809 )     3.25987360
  WF centre and spread    3  (  0.129809,  0.129809, -0.129809 )     3.25987361
  WF centre and spread    4  ( -0.129809, -0.129809, -0.129809 )     3.25987361
  Sum of centres and spreads (  0.000000, -0.000000, -0.000000 )    13.03949441
 
    620    -0.249E-13     0.0000008638       13.0394944131      11.61  <-- CONV
        O_D=      0.0268954 O_OD=      5.4244240 O_TOT=     13.0394944 <-- SPRD
 Delta: O_D= -0.8523533E-11 O_OD=  0.8500756E-11 O_TOT= -0.2486900E-13 <-- DLTA
 ------------------------------------------------------------------------------
 Cycle:    630
  WF centre and spread    1  ( -0.129809,  0.129809,  0.129809 )     3.25987360
  WF centre and spread    2  (  0.129809, -0.129809,  0.129809 )     3.25987360
  WF centre and spread    3  (  0.129809,  0.129809, -0.129809 )     3.25987361
  WF centre and spread    4  ( -0.129809, -0.129809, -0.129809 )     3.25987361
  Sum of centres and spreads (  0.000000, -0.000000, -0.000000 )    13.03949441
 
    630    -0.284E-13     0.0000008553       13.0394944131      11.78  <-- CONV
        O_D=      0.0268954 O_OD=      5.4244240 O_TOT=     13.0394944 <-- SPRD
 Delta: O_D= -0.1435471E-10 O_OD=  0.1432632E-10 O_TOT= -0.2842171E-13 <-- DLTA
 ------------------------------------------------------------------------------
 Cycle:    640
  WF centre and spread    1  ( -0.129809,  0.129809,  0.129809 )     3.25987360
  WF centre and spread    2  (  0.129809, -0.129809,  0.129809 )     3.25987360
  WF centre and spread    3  (  0.129809,  0.129809, -0.129809 )     3.25987361
  WF centre and spread    4  ( -0.129809, -0.129809, -0.129809 )     3.25987361
  Sum of centres and spreads (  0.000000, -0.000000, -0.000000 )    13.03949441
 
    640    -0.622E-13     0.0000008486       13.0394944131      11.94  <-- CONV
        O_D=      0.0268954 O_OD=      5.4244240 O_TOT=     13.0394944 <-- SPRD
 Delta: O_D= -0.1690604E-10 O_OD=  0.1684430E-10 O_TOT= -0.6217249E-13 <-- DLTA
 ------------------------------------------------------------------------------
 Cycle:    650
  WF centre and spread    1  ( -0.129809,  0.129809,  0.129809 )     3.25987360
  WF centre and spread    2  (  0.129809, -0.129809,  0.129809 )     3.25987360
  WF centre and spread    3  (  0.129809,  0.129809, -0.129809 )     3.25987361
  WF centre and spread    4  ( -0.129809, -0.129809, -0.129809 )     3.25987361
  Sum of centres and spreads (  0.000000, -0.000000, -0.000000 )    13.03949441
 
    650     0.338E-13     0.0000008395       13.0394944131      12.10  <-- CONV
        O_D=      0.0268954 O_OD=      5.4244240 O_TOT=     13.0394944 <-- SPRD
 Delta: O_D= -0.1391078E-11 O_OD=  0.1423750E-11 O_TOT=  0.3375078E-13 <-- DLTA
 ------------------------------------------------------------------------------
 Cycle:    660
  WF centre and spread    1  ( -0.129809,  0.129809,  0.129809 )     3.25987360
  WF centre and spread    2  (  0.129809, -0.129809,  0.129809 )     3.25987360
  WF centre and spread    3  (  0.129809,  0.129809, -0.129809 )     3.25987361
  WF centre and spread    4  ( -0.129809, -0.129809, -0.129809 )     3.25987361
  Sum of centres and spreads (  0.000000, -0.000000, -0.000000 )    13.03949441
 
    660    -0.462E-13     0.0000008310       13.0394944131      12.26  <-- CONV
        O_D=      0.0268954 O_OD=      5.4244240 O_TOT=     13.0394944 <-- SPRD
 Delta: O_D= -0.2501549E-10 O_OD=  0.2497025E-10 O_TOT= -0.4618528E-13 <-- DLTA
 ------------------------------------------------------------------------------
 Cycle:    670
  WF centre and spread    1  ( -0.129809,  0.129809,  0.129809 )     3.25987360
  WF centre and spread    2  (  0.129809, -0.129809,  0.129809 )     3.25987360
  WF centre and spread    3  (  0.129809,  0.129809, -0.129809 )     3.25987361
  WF centre and spread    4  ( -0.129809, -0.129809, -0.129809 )     3.25987361
  Sum of centres and spreads (  0.000000, -0.000000, -0.000000 )    13.03949441
 
    670    -0.426E-13     0.0000008232       13.0394944131      12.45  <-- CONV
        O_D=      0.0268954 O_OD=      5.4244240 O_TOT=     13.0394944 <-- SPRD
 Delta: O_D= -0.1665080E-10 O_OD=  0.1660982E-10 O_TOT= -0.4263256E-13 <-- DLTA
 ------------------------------------------------------------------------------
 Cycle:    680
  WF centre and spread    1  ( -0.129809,  0.129809,  0.129809 )     3.25987360
  WF centre and spread    2  (  0.129809, -0.129809,  0.129809 )     3.25987360
  WF centre and spread    3  (  0.129809,  0.129809, -0.129809 )     3.25987361
  WF centre and spread    4  ( -0.129809, -0.129809, -0.129809 )     3.25987361
  Sum of centres and spreads (  0.000000, -0.000000, -0.000000 )    13.03949441
 
    680    -0.409E-13     0.0000008138       13.0394944131      12.65  <-- CONV
        O_D=      0.0268954 O_OD=      5.4244240 O_TOT=     13.0394944 <-- SPRD
 Delta: O_D= -0.8299056E-11 O_OD=  0.8258283E-11 O_TOT= -0.4085621E-13 <-- DLTA
 ------------------------------------------------------------------------------
 Cycle:    690
  WF centre and spread    1  ( -0.129809,  0.129809,  0.129809 )     3.25987360
  WF centre and spread    2  (  0.129809, -0.129809,  0.129809 )     3.25987360
  WF centre and spread    3  (  0.129809,  0.129809, -0.129809 )     3.25987361
  WF centre and spread    4  ( -0.129809, -0.129809, -0.129809 )     3.25987361
  Sum of centres and spreads (  0.000000, -0.000000, -0.000000 )    13.03949441
 
    690    -0.782E-13     0.0000008054       13.0394944131      12.86  <-- CONV
        O_D=      0.0268954 O_OD=      5.4244240 O_TOT=     13.0394944 <-- SPRD
 Delta: O_D= -0.2465269E-10 O_OD=  0.2457323E-10 O_TOT= -0.7815970E-13 <-- DLTA
 ------------------------------------------------------------------------------
 Cycle:    700
  WF centre and spread    1  ( -0.129809,  0.129809,  0.129809 )     3.25987360
  WF centre and spread    2  (  0.129809, -0.129809,  0.129809 )     3.25987360
  WF centre and spread    3  (  0.129809,  0.129809, -0.129809 )     3.25987361
  WF centre and spread    4  ( -0.129809, -0.129809, -0.129809 )     3.25987361
  Sum of centres and spreads (  0.000000, -0.000000, -0.000000 )    13.03949441
 
    700     0.568E-13     0.0000007982       13.0394944131      13.06  <-- CONV
        O_D=      0.0268954 O_OD=      5.4244240 O_TOT=     13.0394944 <-- SPRD
 Delta: O_D= -0.3096350E-11 O_OD=  0.3154810E-11 O_TOT=  0.5684342E-13 <-- DLTA
 ------------------------------------------------------------------------------

 Writing checkpoint file si.chk... done

 Cycle:    710
  WF centre and spread    1  ( -0.129809,  0.129809,  0.129809 )     3.25987360
  WF centre and spread    2  (  0.129809, -0.129809,  0.129809 )     3.25987360
  WF centre and spread    3  (  0.129809,  0.129809, -0.129809 )     3.25987361
  WF centre and spread    4  ( -0.129809, -0.129809, -0.129809 )     3.25987361
  Sum of centres and spreads (  0.000000, -0.000000, -0.000000 )    13.03949441
 
    710    -0.338E-13     0.0000007894       13.0394944131      13.21  <-- CONV
        O_D=      0.0268954 O_OD=      5.4244240 O_TOT=     13.0394944 <-- SPRD
 Delta: O_D= -0.9979483E-12 O_OD=  0.9636736E-12 O_TOT= -0.3375078E-13 <-- DLTA
 ------------------------------------------------------------------------------
 Cycle:    720
  WF centre and spread    1  ( -0.129809,  0.129809,  0.129809 )     3.25987360
  WF centre and spread    2  (  0.129809, -0.129809,  0.129809 )     3.25987360
  WF centre and spread    3  (  0.129809,  0.129809, -0.129809 )     3.25987361
  WF centre and spread    4  ( -0.129809, -0.129809, -0.129809 )     3.25987361
  Sum of centres and spreads (  0.000000, -0.000000, -0.000000 )    13.03949441
 
    720    -0.391E-13     0.0000007826       13.0394944131      13.36  <-- CONV
        O_D=      0.0268954 O_OD=      5.4244240 O_TOT=     13.0394944 <-- SPRD
 Delta: O_D= -0.2432029E-10 O_OD=  0.2428102E-10 O_TOT= -0.3907985E-13 <-- DLTA
 ------------------------------------------------------------------------------
 Cycle:    730
  WF centre and spread    1  ( -0.129809,  0.129809,  0.129809 )     3.25987360
  WF centre and spread    2  (  0.129809, -0.129809,  0.129809 )     3.25987360
  WF centre and spread    3  (  0.129809,  0.129809, -0.129809 )     3.25987361
  WF centre and spread    4  ( -0.129809, -0.129809, -0.129809 )     3.25987361
  Sum of centres and spreads (  0.000000, -0.000000, -0.000000 )    13.03949441
 
    730    -0.853E-13     0.0000007740       13.0394944131      13.52  <-- CONV
        O_D=      0.0268954 O_OD=      5.4244240 O_TOT=     13.0394944 <-- SPRD
 Delta: O_D= -0.1616775E-10 O_OD=  0.1608225E-10 O_TOT= -0.8526513E-13 <-- DLTA
 ------------------------------------------------------------------------------
 Cycle:    740
  WF centre and spread    1  ( -0.129809,  0.129809,  0.129809 )     3.25987360
  WF centre and spread    2  (  0.129809, -0.129809,  0.129809 )     3.25987360
  WF centre and spread    3  (  0.129809,  0.129809, -0.129809 )     3.25987361
  WF centre and spread    4  ( -0.129809, -0.129809, -0.129809 )     3.25987361
  Sum of centres and spreads (  0.000000, -0.000000, -0.000000 )    13.03949441
 
    740     0.711E-14     0.0000007661       13.0394944131      13.71  <-- CONV
        O_D=      0.0268954 O_OD=      5.4244240 O_TOT=     13.0394944 <-- SPRD
 Delta: O_D= -0.3524639E-11 O_OD=  0.3532286E-11 O_TOT=  0.7105427E-14 <-- DLTA
 ------------------------------------------------------------------------------
 Cycle:    750
  WF centre and spread    1  ( -0.129809,  0.129809,  0.129809 )     3.25987360
  WF centre and spread    2  (  0.129809, -0.129809,  0.129809 )     3.25987360
  WF centre and spread    3  (  0.129809,  0.129809, -0.129809 )     3.25987361
  WF centre and spread    4  ( -0.129809, -0.129809, -0.129809 )     3.25987361
  Sum of centres and spreads (  0.000000, -0.000000, -0.000000 )    13.03949441
 
    750    -0.158E-12     0.0000007588       13.0394944131      13.90  <-- CONV
        O_D=      0.0268954 O_OD=      5.4244240 O_TOT=     13.0394944 <-- SPRD
 Delta: O_D= -0.1581360E-10 O_OD=  0.1565592E-10 O_TOT= -0.1580958E-12 <-- DLTA
 ------------------------------------------------------------------------------
 Cycle:    760
  WF centre and spread    1  ( -0.129809,  0.129809,  0.129809 )     3.25987360
  WF centre and spread    2  (  0.129809, -0.129809,  0.129809 )     3.25987360
  WF centre and spread    3  (  0.129809,  0.129809, -0.129809 )     3.25987361
  WF centre and spread    4  ( -0.129809, -0.129809, -0.129809 )     3.25987361
  Sum of centres and spreads (  0.000000, -0.000000, -0.000000 )    13.03949441
 
    760     0.391E-13     0.0000007504       13.0394944131      14.07  <-- CONV
        O_D=      0.0268954 O_OD=      5.4244240 O_TOT=     13.0394944 <-- SPRD
 Delta: O_D= -0.6926414E-11 O_OD=  0.6965983E-11 O_TOT=  0.3907985E-13 <-- DLTA
 ------------------------------------------------------------------------------
 Cycle:    770
  WF centre and spread    1  ( -0.129809,  0.129809,  0.129809 )     3.25987360
  WF centre and spread    2  (  0.129809, -0.129809,  0.129809 )     3.25987360
  WF centre and spread    3  (  0.129809,  0.129809, -0.129809 )     3.25987361
  WF centre and spread    4  ( -0.129809, -0.129809, -0.129809 )     3.25987361
  Sum of centres and spreads (  0.000000, -0.000000, -0.000000 )    13.03949441
 
    770    -0.213E-13     0.0000007401       13.0394944131      14.23  <-- CONV
        O_D=      0.0268954 O_OD=      5.4244240 O_TOT=     13.0394944 <-- SPRD
 Delta: O_D= -0.7913614E-11 O_OD=  0.7892353E-11 O_TOT= -0.2131628E-13 <-- DLTA
 ------------------------------------------------------------------------------
 Cycle:    780
  WF centre and spread    1  ( -0.129809,  0.129809,  0.129809 )     3.25987360
  WF centre and spread    2  (  0.129809, -0.129809,  0.129809 )     3.25987360
  WF centre and spread    3  (  0.129809,  0.129809, -0.129809 )     3.25987361
  WF centre and spread    4  ( -0.129809, -0.129809, -0.129809 )     3.25987361
  Sum of centres and spreads (  0.000000, -0.000000, -0.000000 )    13.03949441
 
    780     0.355E-14     0.0000007335       13.0394944131      14.44  <-- CONV
        O_D=      0.0268954 O_OD=      5.4244240 O_TOT=     13.0394944 <-- SPRD
 Delta: O_D= -0.1487373E-10 O_OD=  0.1487610E-10 O_TOT=  0.3552714E-14 <-- DLTA
 ------------------------------------------------------------------------------
 Cycle:    790
  WF centre and spread    1  ( -0.129809,  0.129809,  0.129809 )     3.25987360
  WF centre and spread    2  (  0.129809, -0.129809,  0.129809 )     3.25987360
  WF centre and spread    3  (  0.129809,  0.129809, -0.129809 )     3.25987361
  WF centre and spread    4  ( -0.129809, -0.129809, -0.129809 )     3.25987361
  Sum of centres and spreads (  0.000000, -0.000000, -0.000000 )    13.03949441
 
    790    -0.817E-13     0.0000007267       13.0394944131      14.63  <-- CONV
        O_D=      0.0268954 O_OD=      5.4244240 O_TOT=     13.0394944 <-- SPRD
 Delta: O_D= -0.1566590E-10 O_OD=  0.1558487E-10 O_TOT= -0.8171241E-13 <-- DLTA
 ------------------------------------------------------------------------------
 Cycle:    800
  WF centre and spread    1  ( -0.129809,  0.129809,  0.129809 )     3.25987360
  WF centre and spread    2  (  0.129809, -0.129809,  0.129809 )     3.25987360
  WF centre and spread    3  (  0.129809,  0.129809, -0.129809 )     3.25987361
  WF centre and spread    4  ( -0.129809, -0.129809, -0.129809 )     3.25987361
  Sum of centres and spreads (  0.000000, -0.000000, -0.000000 )    13.03949441
 
    800    -0.320E-13     0.0000007203       13.0394944131      14.79  <-- CONV
        O_D=      0.0268954 O_OD=      5.4244240 O_TOT=     13.0394944 <-- SPRD
 Delta: O_D= -0.7802665E-11 O_OD=  0.7770673E-11 O_TOT= -0.3197442E-13 <-- DLTA
 ------------------------------------------------------------------------------

 Writing checkpoint file si.chk... done

 Cycle:    810
  WF centre and spread    1  ( -0.129809,  0.129809,  0.129809 )     3.25987360
  WF centre and spread    2  (  0.129809, -0.129809,  0.129809 )     3.25987360
  WF centre and spread    3  (  0.129809,  0.129809, -0.129809 )     3.25987361
  WF centre and spread    4  ( -0.129809, -0.129809, -0.129809 )     3.25987361
  Sum of centres and spreads (  0.000000, -0.000000, -0.000000 )    13.03949441
 
    810     0.657E-13     0.0000007115       13.0394944131      14.96  <-- CONV
        O_D=      0.0268954 O_OD=      5.4244240 O_TOT=     13.0394944 <-- SPRD
 Delta: O_D= -0.6942405E-11 O_OD=  0.7007728E-11 O_TOT=  0.6572520E-13 <-- DLTA
 ------------------------------------------------------------------------------
 Cycle:    820
  WF centre and spread    1  ( -0.129809,  0.129809,  0.129809 )     3.25987360
  WF centre and spread    2  (  0.129809, -0.129809,  0.129809 )     3.25987360
  WF centre and spread    3  (  0.129809,  0.129809, -0.129809 )     3.25987361
  WF centre and spread    4  ( -0.129809, -0.129809, -0.129809 )     3.25987361
  Sum of centres and spreads (  0.000000, -0.000000, -0.000000 )    13.03949441
 
    820    -0.391E-13     0.0000007062       13.0394944131      15.11  <-- CONV
        O_D=      0.0268954 O_OD=      5.4244240 O_TOT=     13.0394944 <-- SPRD
 Delta: O_D= -0.1543447E-10 O_OD=  0.1539746E-10 O_TOT= -0.3907985E-13 <-- DLTA
 ------------------------------------------------------------------------------
 Cycle:    830
  WF centre and spread    1  ( -0.129809,  0.129809,  0.129809 )     3.25987360
  WF centre and spread    2  (  0.129809, -0.129809,  0.129809 )     3.25987360
  WF centre and spread    3  (  0.129809,  0.129809, -0.129809 )     3.25987361
  WF centre and spread    4  ( -0.129809, -0.129809, -0.129809 )     3.25987361
  Sum of centres and spreads (  0.000000, -0.000000, -0.000000 )    13.03949441
 
    830    -0.853E-13     0.0000006973       13.0394944131      15.27  <-- CONV
        O_D=      0.0268954 O_OD=      5.4244240 O_TOT=     13.0394944 <-- SPRD
 Delta: O_D= -0.7665830E-11 O_OD=  0.7581491E-11 O_TOT= -0.8526513E-13 <-- DLTA
 ------------------------------------------------------------------------------
 Cycle:    840
  WF centre and spread    1  ( -0.129809,  0.129809,  0.129809 )     3.25987360
  WF centre and spread    2  (  0.129809, -0.129809,  0.129809 )     3.25987360
  WF centre and spread    3  (  0.129809,  0.129809, -0.129809 )     3.25987361
  WF centre and spread    4  ( -0.129809, -0.129809, -0.129809 )     3.25987361
  Sum of centres and spreads (  0.000000, -0.000000, -0.000000 )    13.03949441
 
    840    -0.924E-13     0.0000006901       13.0394944131      15.43  <-- CONV
        O_D=      0.0268954 O_OD=      5.4244240 O_TOT=     13.0394944 <-- SPRD
 Delta: O_D= -0.2280107E-10 O_OD=  0.2270895E-10 O_TOT= -0.9237056E-13 <-- DLTA
 ------------------------------------------------------------------------------
 Cycle:    850
  WF centre and spread    1  ( -0.129809,  0.129809,  0.129809 )     3.25987360
  WF centre and spread    2  (  0.129809, -0.129809,  0.129809 )     3.25987360
  WF centre and spread    3  (  0.129809,  0.129809, -0.129809 )     3.25987361
  WF centre and spread    4  ( -0.129809, -0.129809, -0.129809 )     3.25987361
  Sum of centres and spreads (  0.000000, -0.000000, -0.000000 )    13.03949441
 
    850    -0.409E-13     0.0000006832       13.0394944131      15.60  <-- CONV
        O_D=      0.0268954 O_OD=      5.4244240 O_TOT=     13.0394944 <-- SPRD
 Delta: O_D= -0.3635640E-11 O_OD=  0.3594458E-11 O_TOT= -0.4085621E-13 <-- DLTA
 ------------------------------------------------------------------------------
 Cycle:    860
  WF centre and spread    1  ( -0.129809,  0.129809,  0.129809 )     3.25987360
  WF centre and spread    2  (  0.129809, -0.129809,  0.129809 )     3.25987360
  WF centre and spread    3  (  0.129809,  0.129809, -0.129809 )     3.25987361
  WF centre and spread    4  ( -0.129809, -0.129809, -0.129809 )     3.25987361
  Sum of centres and spreads (  0.000000, -0.000000, -0.000000 )    13.03949441
 
    860    -0.320E-13     0.0000006787       13.0394944131      15.78  <-- CONV
        O_D=      0.0268954 O_OD=      5.4244240 O_TOT=     13.0394944 <-- SPRD
 Delta: O_D= -0.9639581E-12 O_OD=  0.9325873E-12 O_TOT= -0.3197442E-13 <-- DLTA
 ------------------------------------------------------------------------------
 Cycle:    870
  WF centre and spread    1  ( -0.129809,  0.129809,  0.129809 )     3.25987360
  WF centre and spread    2  (  0.129809, -0.129809,  0.129809 )     3.25987360
  WF centre and spread    3  (  0.129809,  0.129809, -0.129809 )     3.25987361
  WF centre and spread    4  ( -0.129809, -0.129809, -0.129809 )     3.25987361
  Sum of centres and spreads (  0.000000, -0.000000, -0.000000 )    13.03949441
 
    870     0.888E-14     0.0000006712       13.0394944131      16.01  <-- CONV
        O_D=      0.0268954 O_OD=      5.4244240 O_TOT=     13.0394944 <-- SPRD
 Delta: O_D= -0.4184469E-11 O_OD=  0.4193978E-11 O_TOT=  0.8881784E-14 <-- DLTA
 ------------------------------------------------------------------------------
 Cycle:    880
  WF centre and spread    1  ( -0.129809,  0.129809,  0.129809 )     3.25987360
  WF centre and spread    2  (  0.129809, -0.129809,  0.129809 )     3.25987360
  WF centre and spread    3  (  0.129809,  0.129809, -0.129809 )     3.25987361
  WF centre and spread    4  ( -0.129809, -0.129809, -0.129809 )     3.25987361
  Sum of centres and spreads (  0.000000, -0.000000, -0.000000 )    13.03949441
 
    880     0.103E-12     0.0000006658       13.0394944131      16.23  <-- CONV
        O_D=      0.0268954 O_OD=      5.4244240 O_TOT=     13.0394944 <-- SPRD
 Delta: O_D= -0.2093527E-11 O_OD=  0.2197353E-11 O_TOT=  0.1030287E-12 <-- DLTA
 ------------------------------------------------------------------------------
 Cycle:    890
  WF centre and spread    1  ( -0.129809,  0.129809,  0.129809 )     3.25987360
  WF centre and spread    2  (  0.129809, -0.129809,  0.129809 )     3.25987360
  WF centre and spread    3  (  0.129809,  0.129809, -0.129809 )     3.25987361
  WF centre and spread    4  ( -0.129809, -0.129809, -0.129809 )     3.25987361
  Sum of centres and spreads (  0.000000, -0.000000, -0.000000 )    13.03949441
 
    890     0.746E-13     0.0000006602       13.0394944131      16.41  <-- CONV
        O_D=      0.0268954 O_OD=      5.4244240 O_TOT=     13.0394944 <-- SPRD
 Delta: O_D= -0.8316611E-12 O_OD=  0.9077183E-12 O_TOT=  0.7460699E-13 <-- DLTA
 ------------------------------------------------------------------------------
 Cycle:    900
  WF centre and spread    1  ( -0.129809,  0.129809,  0.129809 )     3.25987360
  WF centre and spread    2  (  0.129809, -0.129809,  0.129809 )     3.25987360
  WF centre and spread    3  (  0.129809,  0.129809, -0.129809 )     3.25987361
  WF centre and spread    4  ( -0.129809, -0.129809, -0.129809 )     3.25987361
  Sum of centres and spreads (  0.000000, -0.000000, -0.000000 )    13.03949441
 
    900    -0.444E-13     0.0000006544       13.0394944131      16.59  <-- CONV
        O_D=      0.0268954 O_OD=      5.4244240 O_TOT=     13.0394944 <-- SPRD
 Delta: O_D= -0.1184130E-10 O_OD=  0.1179767E-10 O_TOT= -0.4440892E-13 <-- DLTA
 ------------------------------------------------------------------------------

 Writing checkpoint file si.chk... done

 Cycle:    910
  WF centre and spread    1  ( -0.129809,  0.129809,  0.129809 )     3.25987360
  WF centre and spread    2  (  0.129809, -0.129809,  0.129809 )     3.25987360
  WF centre and spread    3  (  0.129809,  0.129809, -0.129809 )     3.25987361
  WF centre and spread    4  ( -0.129809, -0.129809, -0.129809 )     3.25987361
  Sum of centres and spreads (  0.000000, -0.000000, -0.000000 )    13.03949441
 
    910    -0.888E-14     0.0000006446       13.0394944131      16.77  <-- CONV
        O_D=      0.0268954 O_OD=      5.4244240 O_TOT=     13.0394944 <-- SPRD
 Delta: O_D= -0.1543224E-11 O_OD=  0.1532996E-11 O_TOT= -0.8881784E-14 <-- DLTA
 ------------------------------------------------------------------------------
 Cycle:    920
  WF centre and spread    1  ( -0.129809,  0.129809,  0.129809 )     3.25987360
  WF centre and spread    2  (  0.129809, -0.129809,  0.129809 )     3.25987360
  WF centre and spread    3  (  0.129809,  0.129809, -0.129809 )     3.25987361
  WF centre and spread    4  ( -0.129809, -0.129809, -0.129809 )     3.25987361
  Sum of centres and spreads (  0.000000, -0.000000, -0.000000 )    13.03949441
 
    920     0.462E-13     0.0000006388       13.0394944131      16.97  <-- CONV
        O_D=      0.0268954 O_OD=      5.4244240 O_TOT=     13.0394944 <-- SPRD
 Delta: O_D= -0.2191684E-12 O_OD=  0.2646772E-12 O_TOT=  0.4618528E-13 <-- DLTA
 ------------------------------------------------------------------------------
 Cycle:    930
  WF centre and spread    1  ( -0.129809,  0.129809,  0.129809 )     3.25987360
  WF centre and spread    2  (  0.129809, -0.129809,  0.129809 )     3.25987360
  WF centre and spread    3  (  0.129809,  0.129809, -0.129809 )     3.25987361
  WF centre and spread    4  ( -0.129809, -0.129809, -0.129809 )     3.25987361
  Sum of centres and spreads (  0.000000, -0.000000, -0.000000 )    13.03949441
 
    930     0.888E-14     0.0000006359       13.0394944131      17.14  <-- CONV
        O_D=      0.0268954 O_OD=      5.4244240 O_TOT=     13.0394944 <-- SPRD
 Delta: O_D= -0.6459715E-10 O_OD=  0.6460610E-10 O_TOT=  0.8881784E-14 <-- DLTA
 ------------------------------------------------------------------------------
 Cycle:    940
  WF centre and spread    1  ( -0.129809,  0.129809,  0.129809 )     3.25987360
  WF centre and spread    2  (  0.129809, -0.129809,  0.129809 )     3.25987360
  WF centre and spread    3  (  0.129809,  0.129809, -0.129809 )     3.25987361
  WF centre and spread    4  ( -0.129809, -0.129809, -0.129809 )     3.25987361
  Sum of centres and spreads (  0.000000, -0.000000, -0.000000 )    13.03949441
 
    940    -0.604E-13     0.0000006260       13.0394944131      17.27  <-- CONV
        O_D=      0.0268954 O_OD=      5.4244240 O_TOT=     13.0394944 <-- SPRD
 Delta: O_D= -0.1438740E-10 O_OD=  0.1432543E-10 O_TOT= -0.6039613E-13 <-- DLTA
 ------------------------------------------------------------------------------
 Cycle:    950
  WF centre and spread    1  ( -0.129809,  0.129809,  0.129809 )     3.25987360
  WF centre and spread    2  (  0.129809, -0.129809,  0.129809 )     3.25987360
  WF centre and spread    3  (  0.129809,  0.129809, -0.129809 )     3.25987361
  WF centre and spread    4  ( -0.129809, -0.129809, -0.129809 )     3.25987361
  Sum of centres and spreads (  0.000000, -0.000000, -0.000000 )    13.03949441
 
    950     0.853E-13     0.0000006189       13.0394944131      17.42  <-- CONV
        O_D=      0.0268954 O_OD=      5.4244240 O_TOT=     13.0394944 <-- SPRD
 Delta: O_D= -0.5923907E-12 O_OD=  0.6785683E-12 O_TOT=  0.8526513E-13 <-- DLTA
 ------------------------------------------------------------------------------
 Cycle:    960
  WF centre and spread    1  ( -0.129809,  0.129809,  0.129809 )     3.25987360
  WF centre and spread    2  (  0.129809, -0.129809,  0.129809 )     3.25987360
  WF centre and spread    3  (  0.129809,  0.129809, -0.129809 )     3.25987361
  WF centre and spread    4  ( -0.129809, -0.129809, -0.129809 )     3.25987361
  Sum of centres and spreads (  0.000000, -0.000000, -0.000000 )    13.03949441
 
    960    -0.128E-12     0.0000006131       13.0394944131      17.59  <-- CONV
        O_D=      0.0268954 O_OD=      5.4244240 O_TOT=     13.0394944 <-- SPRD
 Delta: O_D= -0.2131439E-10 O_OD=  0.2118661E-10 O_TOT= -0.1278977E-12 <-- DLTA
 ------------------------------------------------------------------------------
 Cycle:    970
  WF centre and spread    1  ( -0.129809,  0.129809,  0.129809 )     3.25987360
  WF centre and spread    2  (  0.129809, -0.129809,  0.129809 )     3.25987360
  WF centre and spread    3  (  0.129809,  0.129809, -0.129809 )     3.25987361
  WF centre and spread    4  ( -0.129809, -0.129809, -0.129809 )     3.25987361
  Sum of centres and spreads (  0.000000, -0.000000, -0.000000 )    13.03949441
 
    970    -0.249E-13     0.0000006073       13.0394944131      17.77  <-- CONV
        O_D=      0.0268954 O_OD=      5.4244240 O_TOT=     13.0394944 <-- SPRD
 Delta: O_D= -0.3929610E-11 O_OD=  0.3906209E-11 O_TOT= -0.2486900E-13 <-- DLTA
 ------------------------------------------------------------------------------
 Cycle:    980
  WF centre and spread    1  ( -0.129809,  0.129809,  0.129809 )     3.25987360
  WF centre and spread    2  (  0.129809, -0.129809,  0.129809 )     3.25987360
  WF centre and spread    3  (  0.129809,  0.129809, -0.129809 )     3.25987361
  WF centre and spread    4  ( -0.129809, -0.129809, -0.129809 )     3.25987361
  Sum of centres and spreads (  0.000000, -0.000000, -0.000000 )    13.03949441
 
    980    -0.551E-13     0.0000006028       13.0394944131      17.94  <-- CONV
        O_D=      0.0268954 O_OD=      5.4244240 O_TOT=     13.0394944 <-- SPRD
 Delta: O_D= -0.7039244E-11 O_OD=  0.6982859E-11 O_TOT= -0.5506706E-13 <-- DLTA
 ------------------------------------------------------------------------------
 Cycle:    990
  WF centre and spread    1  ( -0.129809,  0.129809,  0.129809 )     3.25987360
  WF centre and spread    2  (  0.129809, -0.129809,  0.129809 )     3.25987360
  WF centre and spread    3  (  0.129809,  0.129809, -0.129809 )     3.25987361
  WF centre and spread    4  ( -0.129809, -0.129809, -0.129809 )     3.25987361
  Sum of centres and spreads (  0.000000, -0.000000, -0.000000 )    13.03949441
 
    990    -0.497E-13     0.0000005986       13.0394944131      18.16  <-- CONV
        O_D=      0.0268954 O_OD=      5.4244240 O_TOT=     13.0394944 <-- SPRD
 Delta: O_D= -0.2097379E-10 O_OD=  0.2092637E-10 O_TOT= -0.4973799E-13 <-- DLTA
 ------------------------------------------------------------------------------
 Cycle:   1000
  WF centre and spread    1  ( -0.129809,  0.129809,  0.129809 )     3.25987360
  WF centre and spread    2  (  0.129809, -0.129809,  0.129809 )     3.25987360
  WF centre and spread    3  (  0.129809,  0.129809, -0.129809 )     3.25987361
  WF centre and spread    4  ( -0.129809, -0.129809, -0.129809 )     3.25987361
  Sum of centres and spreads (  0.000000, -0.000000, -0.000000 )    13.03949441
 
   1000     0.497E-13     0.0000005925       13.0394944131      18.35  <-- CONV
        O_D=      0.0268954 O_OD=      5.4244240 O_TOT=     13.0394944 <-- SPRD
 Delta: O_D= -0.3002282E-11 O_OD=  0.3051781E-11 O_TOT=  0.4973799E-13 <-- DLTA
 ------------------------------------------------------------------------------

 Writing checkpoint file si.chk... done

 Final State
  WF centre and spread    1  ( -0.129809,  0.129809,  0.129809 )     3.25987360
  WF centre and spread    2  (  0.129809, -0.129809,  0.129809 )     3.25987360
  WF centre and spread    3  (  0.129809,  0.129809, -0.129809 )     3.25987361
  WF centre and spread    4  ( -0.129809, -0.129809, -0.129809 )     3.25987361
  Sum of centres and spreads (  0.000000, -0.000000, -0.000000 )    13.03949441
 
         Spreads (Ang^2)       Omega I      =     7.588175051
        ================       Omega D      =     0.026895361
                               Omega OD     =     5.424424002
    Final Spread (Ang^2)       Omega Total  =    13.039494413
 ------------------------------------------------------------------------------
 Time for wannierise           18.330 (sec)

 Writing checkpoint file si.chk... done

 *---------------------------------------------------------------------------*
 |                               PLOTTING                                    |
 *---------------------------------------------------------------------------*
 
 
 Calculating interpolated band-structure
 
 Time to calculate interpolated band structure       0.258 (sec)
 
 Time for plotting              0.595 (sec)
 Total Execution Time          19.562 (sec)

 *===========================================================================*
 |                             TIMING INFORMATION                            |
 *===========================================================================*
 |    Tag                                                Ncalls      Time (s)|
 |---------------------------------------------------------------------------|
 |kmesh: get                                        :         1         0.440|
 |overlap: allocate                                 :         1         0.002|
 |overlap: read                                     :         1         0.136|
 |wann: main                                        :         1        18.330|
 |plot: main                                        :         1         0.595|
 *---------------------------------------------------------------------------*
 
 All done: wannier90 exiting
